 Gaussian 16, Revision A.03,
 Gaussian 16:  ES64L-G16RevA.03 25-Dec-2016

 ----------------------------------------------------------------------
 # wB97XD/Def2SVP Opt # SCRF=(SMD,Solvent=Water) # Integral=(Grid=Ultra
 FineGrid)
 ----------------------------------------------------------------------

 ------------------------------
 Geometry optimisation, Mol: A1
 ------------------------------
 Symbolic Z-matrix:
 Charge =  0 Multiplicity = 1

 SCF Done:  E(RwB97XD) =  -2899.37392398     A.U. after   15 cycles
 SCF Done:  E(RwB97XD) =  -2899.39777040     A.U. after   12 cycles
 SCF Done:  E(RwB97XD) =  -2899.39844545     A.U. after   12 cycles
 SCF Done:  E(RwB97XD) =  -2899.39841818     A.U. after   10 cycles
 SCF Done:  E(RwB97XD) =  -2899.39838169     A.U. after   11 cycles
 SCF Done:  E(RwB97XD) =  -2899.39848958     A.U. after   10 cycles
 SCF Done:  E(RwB97XD) =  -2899.39846546     A.U. after   10 cycles
 SCF Done:  E(RwB97XD) =  -2899.39850201     A.U. after   10 cycles
 SCF Done:  E(RwB97XD) =  -2899.39850356     A.U. after    9 cycles
 SCF Done:  E(RwB97XD) =  -2899.39850600     A.U. after    9 cycles
 SCF Done:  E(RwB97XD) =  -2899.39850641     A.U. after    9 cycles
 SCF Done:  E(RwB97XD) =  -2899.39850710     A.U. after    9 cycles
 SCF Done:  E(RwB97XD) =  -2899.39850742     A.U. after    8 cycles
 SCF Done:  E(RwB97XD) =  -2899.39850757     A.U. after    5 cycles
 SCF Done:  E(RwB97XD) =  -2899.39850763     A.U. after    7 cycles
 Optimization completed.
    -- Stationary point found.

                         Standard orientation:
 ---------------------------------------------------------------------
 Center     Atomic      Atomic             Coordinates (Angstroms)
 Number     Number       Type             X           Y           Z
 ---------------------------------------------------------------------
      1          8           0       -8.028861   -2.935518   -0.471089
      2          6           0       -9.063259   -3.495900    0.333110
      3          1           0       -8.639541   -4.020286    1.201157
      4          1           0       -9.596821   -4.206083   -0.307700
      5          1           0       -9.752831   -2.713569    0.680222
      6          8           0       -7.369300   -1.682009    1.257174
      7          6           0       -7.236928   -2.030425    0.103567
      8          6           0       -6.191524   -1.518279   -0.846933
      9          1           0       -6.718628   -1.093614   -1.717169
     10          1           0       -5.638732   -2.391783   -1.229954
     11          6           0       -5.250612   -0.501272   -0.222527
     12          1           0       -5.834093    0.346654    0.168083
     13          1           0       -4.741519   -0.955890    0.643408
     14          6           0       -4.210068   -0.011201   -1.222672
     15          1           0       -3.695952   -0.879704   -1.658716
     16          1           0       -4.700403    0.510384   -2.060480
     17          6           0       -3.198528    0.946203   -0.607073
     18          6           0       -3.782671    2.273193   -0.200904
     19          6           0       -3.897140    3.298079   -1.145764
     20          1           0       -3.516166    3.141915   -2.158363
     21          6           0       -4.486345    4.513460   -0.801795
     22          1           0       -4.566992    5.307842   -1.547092
     23          6           0       -4.968846    4.715015    0.492211
     24          1           0       -5.427941    5.668298    0.763545
     25          6           0       -4.862640    3.695108    1.437708
     26          1           0       -5.240175    3.845030    2.451554
     27          6           0       -4.272451    2.479474    1.092255
     28          1           0       -4.190273    1.682765    1.835386
     29          6           0        1.760640    3.204999   -1.098573
     30          6           0        1.441141    3.103872    1.336343
     31          6           0        4.412802   -0.292617    2.165343
     32          6           0        0.981478   -1.453144   -3.213437
     33          6           0        1.910136   -2.826681    2.323755
     34          6           0        0.911852    3.303031    0.001405
     35          6           0        1.744176   -3.413239   -1.307925
     36          6           0        4.600171    1.620641    0.629375
     37          6           0       -1.022631    0.032559    2.352977
     38          6           0        0.009677   -2.093407   -2.448648
     39          6           0       -2.123648    0.359943    0.270674
     40          6           0       -1.243006   -1.271151    1.761700
     41          6           0       -0.470368   -2.976612   -0.327782
     42          6           0        2.277219   -3.619316    0.025970
     43          6           0       -0.724791    2.201344    1.287240
     44          6           0        4.059406   -2.404980    1.206435
     45          6           0       -1.800044    0.958481   -1.170470
     46          6           0       -1.222243   -0.001481   -2.152514
     47          6           0        3.189637   -2.285504    2.359869
     48          6           0        4.249452   -0.332263   -2.331438
     49          6           0        5.100355   -0.651177   -0.168233
     50          6           0        4.992743    0.776290   -0.401778
     51          6           0        3.665988    2.696848    0.370224
     52          6           0       -0.190017    0.669455   -2.898083
     53          6           0       -1.448995    1.034521    1.413719
     54          6           0        2.786046    2.811328    1.518476
     55          6           0        0.403516   -3.095466   -1.478283
     56          6           0        0.433326    2.419928    2.122311
     57          6           0       -0.355517   -2.309823    2.021883
     58          6           0        2.215005    0.531401   -3.406013
     59          6           0        4.303874    1.074319    1.941188
     60          6           0       -1.812538   -1.086220    0.452175
     61          6           0        3.574363    2.008207   -1.987635
     62          6           0        0.040257   -3.186970    0.950575
     63          6           0        0.073278    0.246078    3.182544
     64          6           0        3.908622   -2.512406   -1.247089
     65          6           0        2.756845   -2.735699   -2.096397
     66          6           0        1.004943   -0.835577    3.444855
     67          6           0        0.878881   -0.035099   -3.441964
     68          6           0       -1.110727   -1.355894   -1.912668
     69          6           0        3.146535   -0.548532   -3.148745
     70          6           0       -0.865552    2.119191   -1.187467
     71          6           0        2.224245    1.157152    3.248631
     72          6           0       -1.413886   -1.911376   -0.579794
     73          6           0        0.795518   -2.084118    2.877279
     74          6           0        2.424031    1.780124   -2.838857
     75          6           0        3.408484   -0.979553    2.952903
     76          6           0        3.163192    2.888398   -0.909779
     77          6           0        4.816896   -1.173832    1.086478
     78          6           0        0.820384    1.471316    3.065960
     79          6           0        2.338623   -0.269952    3.484952
     80          6           0       -0.425047    2.756454   -0.045857
     81          6           0        0.028462    1.973051   -2.305469
     82          6           0        4.638795   -1.335769   -1.360827
     83          6           0        3.186778    1.813153    2.492779
     84          6           0        1.443066   -3.507450    1.130451
     85          6           0        2.382898   -1.776262   -3.027845
     86          6           0        3.612214   -3.058607    0.064806
     87          6           0        1.306862    2.520715   -2.281330
     88          6           0        4.468104    0.973635   -1.738316
 ---------------------------------------------------------------------

 The electronic state is 1-A.
 Alpha  occ. eigenvalues --  -19.30538 -19.25198 -10.43181 -10.35219 -10.35182
 Alpha  occ. eigenvalues --  -10.34622 -10.34460 -10.34120 -10.34067 -10.34055
 Alpha  occ. eigenvalues --  -10.34034 -10.33869 -10.33863 -10.33859 -10.33854
 Alpha  occ. eigenvalues --  -10.33852 -10.33849 -10.33846 -10.33839 -10.33836
 Alpha  occ. eigenvalues --  -10.33829 -10.33815 -10.33813 -10.33812 -10.33808
 Alpha  occ. eigenvalues --  -10.33807 -10.33799 -10.33798 -10.33791 -10.33790
 Alpha  occ. eigenvalues --  -10.33781 -10.33780 -10.33776 -10.33774 -10.33774
 Alpha  occ. eigenvalues --  -10.33770 -10.33768 -10.33761 -10.33759 -10.33757
 Alpha  occ. eigenvalues --  -10.33755 -10.33747 -10.33746 -10.33726 -10.33725
 Alpha  occ. eigenvalues --  -10.33722 -10.33720 -10.33717 -10.33709 -10.33707
 Alpha  occ. eigenvalues --  -10.33701 -10.33649 -10.33634 -10.33621 -10.33612
 Alpha  occ. eigenvalues --  -10.33604 -10.33588 -10.33476 -10.33474 -10.33460
 Alpha  occ. eigenvalues --  -10.33454 -10.33442 -10.33440 -10.33409 -10.33391
 Alpha  occ. eigenvalues --  -10.31615 -10.30484 -10.30459 -10.30337 -10.30331
 Alpha  occ. eigenvalues --  -10.30312 -10.30269 -10.30265 -10.29492  -1.20669
 Alpha  occ. eigenvalues --   -1.11205  -1.06878  -1.05223  -1.04783  -1.04707
 Alpha  occ. eigenvalues --   -1.02038  -1.00936  -1.00904  -1.00845  -1.00797
 Alpha  occ. eigenvalues --   -0.97908  -0.96865  -0.96802  -0.96205  -0.94799
 Alpha  occ. eigenvalues --   -0.93637  -0.93473  -0.93423  -0.91391  -0.89575
 Alpha  occ. eigenvalues --   -0.88453  -0.88431  -0.88347  -0.88279  -0.87572
 Alpha  occ. eigenvalues --   -0.86594  -0.86579  -0.86478  -0.85632  -0.84019
 Alpha  occ. eigenvalues --   -0.83738  -0.82593  -0.80741  -0.80724  -0.80514
 Alpha  occ. eigenvalues --   -0.80491  -0.79747  -0.79708  -0.79529  -0.78967
 Alpha  occ. eigenvalues --   -0.76391  -0.75546  -0.75288  -0.73950  -0.71714
 Alpha  occ. eigenvalues --   -0.71376  -0.71284  -0.71252  -0.71223  -0.70877
 Alpha  occ. eigenvalues --   -0.70667  -0.70600  -0.69753  -0.69339  -0.69018
 Alpha  occ. eigenvalues --   -0.65120  -0.64890  -0.64651  -0.64465  -0.64347
 Alpha  occ. eigenvalues --   -0.64185  -0.62252  -0.62196  -0.61607  -0.61527
 Alpha  occ. eigenvalues --   -0.61402  -0.60716  -0.60524  -0.60419  -0.59893
 Alpha  occ. eigenvalues --   -0.59066  -0.58814  -0.57890  -0.57857  -0.57609
 Alpha  occ. eigenvalues --   -0.57430  -0.56859  -0.56317  -0.55914  -0.55315
 Alpha  occ. eigenvalues --   -0.55179  -0.55155  -0.55079  -0.54923  -0.54602
 Alpha  occ. eigenvalues --   -0.54318  -0.54104  -0.53544  -0.53250  -0.53137
 Alpha  occ. eigenvalues --   -0.53016  -0.52720  -0.52123  -0.51973  -0.51743
 Alpha  occ. eigenvalues --   -0.51585  -0.51077  -0.50794  -0.50689  -0.50629
 Alpha  occ. eigenvalues --   -0.50429  -0.50419  -0.50361  -0.50346  -0.50218
 Alpha  occ. eigenvalues --   -0.50173  -0.49326  -0.49064  -0.48665  -0.48638
 Alpha  occ. eigenvalues --   -0.48514  -0.48252  -0.46918  -0.46179  -0.45548
 Alpha  occ. eigenvalues --   -0.45009  -0.44667  -0.44417  -0.44228  -0.44146
 Alpha  occ. eigenvalues --   -0.44063  -0.43964  -0.43941  -0.43840  -0.43625
 Alpha  occ. eigenvalues --   -0.43177  -0.43160  -0.43039  -0.42836  -0.42747
 Alpha  occ. eigenvalues --   -0.42640  -0.42338  -0.42313  -0.42222  -0.41880
 Alpha  occ. eigenvalues --   -0.41371  -0.40674  -0.39643  -0.39176  -0.37132
 Alpha  occ. eigenvalues --   -0.35815  -0.34783  -0.34580  -0.34563  -0.34381
 Alpha  occ. eigenvalues --   -0.34237  -0.34019  -0.33877  -0.33459  -0.32675
 Alpha  occ. eigenvalues --   -0.32166  -0.29506  -0.28804  -0.28469  -0.28465
 Alpha  occ. eigenvalues --   -0.27733
 Alpha virt. eigenvalues --   -0.06730  -0.06357  -0.05457  -0.01642  -0.01153
 Alpha virt. eigenvalues --   -0.00185   0.01304   0.03155   0.03174   0.03251
 Alpha virt. eigenvalues --    0.03448   0.03456   0.03701   0.05257   0.05447

 Mulliken charges:
               1
     1  O   -0.347818
     2  C    0.112704
     3  H    0.065379
     4  H    0.074411
     5  H    0.065227
     6  O   -0.347233
     7  C    0.248247
     8  C   -0.027029
     9  H    0.082310
    10  H    0.081053
    11  C   -0.088999
    12  H    0.043945
    13  H    0.043044
    14  C    0.162470
    15  H    0.029667
    16  H    0.042255
    17  C   -0.045741
    18  C   -0.034055
    19  C   -0.029517
    20  H    0.042315
    21  C   -0.044684
    22  H    0.048762
    23  C   -0.035130
    24  H    0.050346
    25  C   -0.045979
    26  H    0.047992
    27  C   -0.021434
    28  H    0.043988
    29  C   -0.009238
    30  C   -0.003588
    31  C   -0.001477
    32  C   -0.009751
    33  C   -0.000116
    34  C    0.005238
    35  C   -0.004402
    36  C   -0.002009
    37  C    0.014247
    38  C    0.005116
    39  C   -0.161537
    40  C    0.011290
    41  C    0.007408
    42  C   -0.003108
    43  C   -0.010076
    44  C   -0.001080
    45  C   -0.153770
    46  C    0.068962
    47  C   -0.001674
    48  C   -0.001009
    49  C   -0.001924
    50  C   -0.001358
    51  C   -0.003043
    52  C    0.007985
    53  C    0.063812
    54  C   -0.003693
    55  C   -0.005229
    56  C    0.003760
    57  C   -0.015300
    58  C   -0.002839
    59  C   -0.002364
    60  C    0.076632
    61  C   -0.000075
    62  C   -0.010210
    63  C   -0.016714
    64  C   -0.001496
    65  C   -0.002785
    66  C   -0.002994
    67  C   -0.015425
    68  C   -0.019192
    69  C   -0.000509
    70  C    0.070271
    71  C   -0.004982
    72  C   -0.022096
    73  C   -0.002023
    74  C   -0.002555
    75  C   -0.001218
    76  C   -0.004424
    77  C   -0.002406
    78  C   -0.008196
    79  C   -0.000338
    80  C   -0.016181
    81  C    0.012114
    82  C   -0.001708
    83  C   -0.002852
    84  C   -0.004155
    85  C   -0.003967
    86  C   -0.002099
    87  C   -0.014692
    88  C   -0.001453
 Sum of Mulliken charges =  -0.00000

 Dipole moment (field-independent basis, Debye):
    X=             -4.8020    Y=             -0.3159    Z=             -2.7602  Tot=              5.5478
 Quadrupole moment (field-independent basis, Debye-Ang):
   XX=           -396.8311   YY=           -408.2250   ZZ=           -420.5779
   XY=              5.6202   XZ=             14.8579   YZ=             -0.2228

 Normal termination of Gaussian 16 at Fri Feb  7 01:22:17 2020.
