 Gaussian 16, Revision A.03,
 Gaussian 16:  ES64L-G16RevA.03 25-Dec-2016

 ----------------------------------------------------------------------
 # wB97XD/Def2SVP Opt # SCRF=(SMD,Solvent=Water) # Integral=(Grid=Ultra
 FineGrid)
 ----------------------------------------------------------------------

 ------------------------------
 Geometry optimisation, Mol: A2
 ------------------------------
 Symbolic Z-matrix:
 Charge =  0 Multiplicity = 1

 SCF Done:  E(RwB97XD) =  -3280.10268066     A.U. after   15 cycles
 SCF Done:  E(RwB97XD) =  -3280.12856821     A.U. after   13 cycles
 SCF Done:  E(RwB97XD) =  -3280.12961862     A.U. after   12 cycles
 SCF Done:  E(RwB97XD) =  -3280.12959664     A.U. after   11 cycles
 SCF Done:  E(RwB97XD) =  -3280.12931275     A.U. after   11 cycles
 SCF Done:  E(RwB97XD) =  -3280.12966673     A.U. after   11 cycles
 SCF Done:  E(RwB97XD) =  -3280.12968917     A.U. after    9 cycles
 SCF Done:  E(RwB97XD) =  -3280.12969126     A.U. after    9 cycles
 SCF Done:  E(RwB97XD) =  -3280.12969272     A.U. after    8 cycles
 SCF Done:  E(RwB97XD) =  -3280.12969335     A.U. after    7 cycles
 SCF Done:  E(RwB97XD) =  -3280.12911233     A.U. after   12 cycles
 SCF Done:  E(RwB97XD) =  -3280.12908817     A.U. after   11 cycles
 SCF Done:  E(RwB97XD) =  -3280.12967297     A.U. after   11 cycles
 SCF Done:  E(RwB97XD) =  -3280.12969765     A.U. after   11 cycles
 SCF Done:  E(RwB97XD) =  -3280.12969863     A.U. after    9 cycles
 SCF Done:  E(RwB97XD) =  -3280.12969873     A.U. after    8 cycles
 SCF Done:  E(RwB97XD) =  -3280.12969878     A.U. after    7 cycles
 SCF Done:  E(RwB97XD) =  -3280.12969888     A.U. after    7 cycles
 SCF Done:  E(RwB97XD) =  -3280.12969894     A.U. after    7 cycles
 SCF Done:  E(RwB97XD) =  -3280.12969896     A.U. after    6 cycles
 Optimization completed.
    -- Stationary point found.

                         Standard orientation:
 ---------------------------------------------------------------------
 Center     Atomic      Atomic             Coordinates (Angstroms)
 Number     Number       Type             X           Y           Z
 ---------------------------------------------------------------------
      1          6           0        2.572923    1.220865    1.061497
      2          6           0        2.693260    0.315711   -0.254242
      3          6           0        1.745194   -0.826542    2.284097
      4          6           0        2.002978    0.531841    2.251671
      5          6           0        1.096112    1.428525    2.913550
      6          6           0        0.013666    0.942063    3.647381
      7          6           0       -0.233134   -0.468003    3.693225
      8          6           0        0.607822   -1.329477    3.010407
      9          6           0        0.932565    2.602768    2.088176
     10          6           0        1.735070    2.442191    0.908222
     11          6           0        1.233634    2.865834   -0.308861
     12          6           0        1.356911    2.033550   -1.509111
     13          6           0        1.966557    0.808897   -1.446973
     14          6           0        1.373485   -0.313876   -2.129539
     15          6           0        1.537339   -1.470534   -1.318784
     16          6           0        0.590107   -2.523532   -1.344994
     17          6           0        0.214413   -3.140672   -0.076686
     18          6           0        0.815362   -2.646085    1.106908
     19          6           0        1.870784   -1.651007    1.077931
     20          6           0        2.240004   -1.089551   -0.116603
     21          6           0        0.049609   -2.456862    2.291362
     22          6           0       -1.272522    1.597462    3.565580
     23          6           0       -1.428423    2.718726    2.777938
     24          6           0       -0.306353    3.242416    2.031357
     25          6           0       -0.811621    3.694257    0.770059
     26          6           0       -0.061789    3.492456   -0.376142
     27          6           0       -0.721227    3.085392   -1.600994
     28          6           0        0.142633    2.186359   -2.286887
     29          6           0       -0.380737    1.135199   -3.079804
     30          6           0        0.261391   -0.172636   -2.995127
     31          6           0       -0.515816   -1.334658   -3.211628
     32          6           0       -0.354210   -2.492190   -2.398443
     33          6           0       -1.647602   -3.135506   -2.271614
     34          6           0       -2.007450   -3.713939   -1.071163
     35          6           0       -1.089208   -3.678047    0.052580
     36          6           0       -1.851881   -3.490150    1.239844
     37          6           0       -1.335500   -2.753578    2.332437
     38          6           0       -2.229919   -1.830025    3.042384
     39          6           0       -1.668818   -0.687884    3.661497
     40          6           0       -2.308501    0.582629    3.588760
     41          6           0       -3.528822    0.752747    2.888573
     42          6           0       -3.694718    1.946752    2.049819
     43          6           0       -2.627606    2.876478    1.977757
     44          6           0       -2.246976    3.470538    0.740416
     45          6           0       -2.924043    3.160461   -0.462924
     46          6           0       -2.130791    2.963394   -1.683099
     47          6           0       -2.628282    2.090795   -2.680279
     48          6           0       -3.928263    1.456815   -2.553408
     49          6           0       -4.670552    1.635799   -1.404434
     50          6           0       -4.145367    2.457457   -0.328270
     51          6           0       -1.766318    1.188635   -3.365584
     52          6           0       -2.522404   -0.012398   -3.670992
     53          6           0       -1.910595   -1.247497   -3.597856
     54          6           0       -2.616225   -2.372703   -3.026802
     55          6           0       -3.911367   -2.216172   -2.547731
     56          6           0       -4.555307   -0.920124   -2.627583
     57          6           0       -3.871186    0.156734   -3.181634
     58          6           0       -4.290299   -2.825974   -1.288588
     59          6           0       -3.353951   -3.561714   -0.569844
     60          6           0       -3.251567   -3.407309    0.863241
     61          6           0       -4.090416   -2.534335    1.524634
     62          6           0       -3.566824   -1.703271    2.594316
     63          6           0       -4.206451   -0.432836    2.518701
     64          6           0       -5.127341   -0.463761    1.395426
     65          6           0       -5.283004    0.657893    0.607444
     66          6           0       -5.390071    0.525167   -0.826703
     67          6           0       -5.334421   -0.732416   -1.421106
     68          6           0       -5.170947   -1.909263   -0.594365
     69          6           0       -5.070860   -1.772575    0.787357
     70          6           0       -4.525343    1.860573    0.907876
     71          6           0        3.894710    0.952515    0.397067
     72          6           0        4.540629    2.106390   -0.323868
     73          6           0        4.833146    3.282022    0.374914
     74          1           0        4.547934    3.369056    1.426564
     75          6           0        5.477342    4.340750   -0.263040
     76          1           0        5.696888    5.255814    0.291442
     77          6           0        5.837262    4.232339   -1.607067
     78          1           0        6.338819    5.062899   -2.108733
     79          6           0        5.553717    3.060004   -2.307789
     80          1           0        5.834237    2.967658   -3.359274
     81          6           0        4.908349    2.001691   -1.668564
     82          1           0        4.684992    1.085588   -2.220609
     83          6           0        4.882191    0.033940    1.104403
     84          1           0        5.500699    0.656524    1.770827
     85          1           0        4.346449   -0.674277    1.752582
     86          6           0        5.764803   -0.744757    0.136238
     87          1           0        6.371035   -0.052632   -0.468116
     88          1           0        5.129644   -1.302894   -0.571473
     89          6           0        6.680810   -1.714169    0.864668
     90          1           0        6.103615   -2.439986    1.460537
     91          1           0        7.330530   -1.187283    1.582935
     92          6           0        7.574747   -2.496162   -0.056364
     93          8           0        7.618311   -2.375367   -1.261887
     94          8           0        8.340072   -3.360931    0.609137
     95          6           0        9.238195   -4.157098   -0.159549
     96          1           0        8.687823   -4.778931   -0.879574
     97          1           0        9.955631   -3.522576   -0.698785
     98          1           0        9.768481   -4.795038    0.555628
 ---------------------------------------------------------------------

 The electronic state is 1-A.
 Alpha  occ. eigenvalues --  -19.30547 -19.25199 -10.43185 -10.35418 -10.35174
 Alpha  occ. eigenvalues --  -10.34781 -10.34518 -10.34505 -10.34468 -10.34459
 Alpha  occ. eigenvalues --  -10.34452 -10.34442 -10.34436 -10.34416 -10.34388
 Alpha  occ. eigenvalues --  -10.34381 -10.34342 -10.34245 -10.34226 -10.34217
 Alpha  occ. eigenvalues --  -10.34156 -10.34146 -10.34127 -10.34123 -10.34038
 Alpha  occ. eigenvalues --  -10.34016 -10.33934 -10.33872 -10.33865 -10.33827
 Alpha  occ. eigenvalues --  -10.33740 -10.33731 -10.33726 -10.33706 -10.33683
 Alpha  occ. eigenvalues --  -10.33675 -10.33650 -10.33647 -10.33645 -10.33633
 Alpha  occ. eigenvalues --  -10.33627 -10.33601 -10.33590 -10.33584 -10.33570
 Alpha  occ. eigenvalues --  -10.33561 -10.33561 -10.33553 -10.33546 -10.33543
 Alpha  occ. eigenvalues --  -10.33531 -10.33525 -10.33519 -10.33491 -10.33486
 Alpha  occ. eigenvalues --  -10.33482 -10.33481 -10.33481 -10.33480 -10.33475
 Alpha  occ. eigenvalues --  -10.33458 -10.33454 -10.33445 -10.33430 -10.33424
 Alpha  occ. eigenvalues --  -10.33410 -10.33396 -10.33388 -10.33374 -10.33304
 Alpha  occ. eigenvalues --  -10.33285 -10.33037 -10.33004 -10.32894 -10.32880
 Alpha  occ. eigenvalues --  -10.31659 -10.30512 -10.30489 -10.30352 -10.30348
 Alpha  occ. eigenvalues --  -10.30334 -10.30322 -10.30285 -10.29509  -1.20673
 Alpha  occ. eigenvalues --   -1.11208  -1.06796  -1.05759  -1.04796  -1.04636
 Alpha  occ. eigenvalues --   -1.02885  -1.02190  -1.01952  -1.01108  -1.01025
 Alpha  occ. eigenvalues --   -0.99287  -0.98317  -0.97781  -0.97336  -0.96083
 Alpha  occ. eigenvalues --   -0.95548  -0.95134  -0.95020  -0.93436  -0.92824
 Alpha  occ. eigenvalues --   -0.90469  -0.90428  -0.90353  -0.90228  -0.90103
 Alpha  occ. eigenvalues --   -0.89896  -0.88424  -0.88331  -0.87638  -0.84923
 Alpha  occ. eigenvalues --   -0.84842  -0.84271  -0.84022  -0.83922  -0.83776
 Alpha  occ. eigenvalues --   -0.83501  -0.83331  -0.82616  -0.82559  -0.82434
 Alpha  occ. eigenvalues --   -0.81895  -0.79731  -0.78605  -0.77518  -0.76540
 Alpha  occ. eigenvalues --   -0.76406  -0.75787  -0.75637  -0.75170  -0.74991
 Alpha  occ. eigenvalues --   -0.73934  -0.73097  -0.72411  -0.72135  -0.71894
 Alpha  occ. eigenvalues --   -0.70878  -0.70585  -0.69893  -0.69289  -0.68837
 Alpha  occ. eigenvalues --   -0.67528  -0.67473  -0.66391  -0.66356  -0.66050
 Alpha  occ. eigenvalues --   -0.65523  -0.65122  -0.64969  -0.64651  -0.64314
 Alpha  occ. eigenvalues --   -0.62763  -0.62291  -0.61821  -0.61546  -0.61451
 Alpha  occ. eigenvalues --   -0.61423  -0.60195  -0.59706  -0.59126  -0.58843
 Alpha  occ. eigenvalues --   -0.58553  -0.57838  -0.57555  -0.57443  -0.57315
 Alpha  occ. eigenvalues --   -0.57064  -0.57034  -0.56745  -0.56616  -0.56227
 Alpha  occ. eigenvalues --   -0.56068  -0.55883  -0.55685  -0.55403  -0.55009
 Alpha  occ. eigenvalues --   -0.54881  -0.54712  -0.54539  -0.54345  -0.53655
 Alpha  occ. eigenvalues --   -0.53601  -0.53088  -0.52523  -0.52268  -0.52116
 Alpha  occ. eigenvalues --   -0.52025  -0.51889  -0.51656  -0.51474  -0.51337
 Alpha  occ. eigenvalues --   -0.51190  -0.50912  -0.50782  -0.50744  -0.50645
 Alpha  occ. eigenvalues --   -0.50502  -0.50299  -0.50195  -0.49870  -0.49635
 Alpha  occ. eigenvalues --   -0.49279  -0.48991  -0.48187  -0.48070  -0.48016
 Alpha  occ. eigenvalues --   -0.47758  -0.47624  -0.47286  -0.46738  -0.46149
 Alpha  occ. eigenvalues --   -0.45973  -0.45908  -0.45784  -0.45231  -0.44767
 Alpha  occ. eigenvalues --   -0.44570  -0.44399  -0.44128  -0.43932  -0.43594
 Alpha  occ. eigenvalues --   -0.43580  -0.43356  -0.43207  -0.43100  -0.43042
 Alpha  occ. eigenvalues --   -0.42987  -0.42927  -0.42790  -0.42527  -0.42055
 Alpha  occ. eigenvalues --   -0.41406  -0.41298  -0.40770  -0.39194  -0.38849
 Alpha  occ. eigenvalues --   -0.38579  -0.38353  -0.37905  -0.37334  -0.37137
 Alpha  occ. eigenvalues --   -0.36997  -0.36591  -0.35055  -0.35002  -0.33714
 Alpha  occ. eigenvalues --   -0.33455  -0.32247  -0.31501  -0.30613  -0.30597
 Alpha  occ. eigenvalues --   -0.30463  -0.30127  -0.29162  -0.28080  -0.27942
 Alpha  occ. eigenvalues --   -0.26956
 Alpha virt. eigenvalues --   -0.06747  -0.06530  -0.06189  -0.04479  -0.02470
 Alpha virt. eigenvalues --   -0.01440   0.00549   0.01853   0.02466   0.02508
 Alpha virt. eigenvalues --    0.03151   0.03679   0.04233   0.04539   0.04897

 Mulliken charges:
               1
     1  C   -0.158089
     2  C   -0.151833
     3  C   -0.006167
     4  C    0.075405
     5  C    0.004997
     6  C   -0.000143
     7  C   -0.016727
     8  C   -0.001886
     9  C    0.009386
    10  C    0.076156
    11  C   -0.003618
    12  C   -0.009505
    13  C    0.063691
    14  C   -0.019975
    15  C   -0.023510
    16  C    0.052070
    17  C    0.066236
    18  C   -0.036586
    19  C   -0.020862
    20  C    0.076188
    21  C   -0.036244
    22  C   -0.011063
    23  C   -0.011628
    24  C    0.000449
    25  C   -0.016052
    26  C   -0.001715
    27  C   -0.033803
    28  C   -0.040826
    29  C    0.068941
    30  C    0.050675
    31  C   -0.034150
    32  C   -0.033843
    33  C   -0.006115
    34  C   -0.004306
    35  C   -0.041384
    36  C   -0.037465
    37  C    0.059257
    38  C    0.073202
    39  C   -0.049489
    40  C   -0.037216
    41  C    0.064443
    42  C    0.063151
    43  C   -0.036397
    44  C   -0.050612
    45  C    0.073655
    46  C    0.058732
    47  C   -0.036674
    48  C   -0.010857
    49  C   -0.003833
    50  C   -0.045221
    51  C   -0.042404
    52  C   -0.003638
    53  C   -0.006434
    54  C    0.012738
    55  C    0.002415
    56  C    0.000315
    57  C    0.015477
    58  C    0.000177
    59  C    0.015678
    60  C   -0.010614
    61  C   -0.004205
    62  C   -0.044559
    63  C   -0.039091
    64  C   -0.008364
    65  C   -0.008876
    66  C    0.013279
    67  C   -0.000112
    68  C    0.000305
    69  C    0.013384
    70  C   -0.038358
    71  C   -0.043299
    72  C   -0.035334
    73  C   -0.029672
    74  H    0.042687
    75  C   -0.044865
    76  H    0.049072
    77  C   -0.034826
    78  H    0.050604
    79  C   -0.045958
    80  H    0.048245
    81  C   -0.020470
    82  H    0.044881
    83  C    0.164781
    84  H    0.043095
    85  H    0.029865
    86  C   -0.091313
    87  H    0.043961
    88  H    0.043753
    89  C   -0.025324
    90  H    0.080789
    91  H    0.082681
    92  C    0.247802
    93  O   -0.347275
    94  O   -0.347746
    95  C    0.112704
    96  H    0.065332
    97  H    0.065385
    98  H    0.074489
 Sum of Mulliken charges =  -0.00000

 Dipole moment (field-independent basis, Debye):
    X=              5.8611    Y=             -0.7601    Z=              1.5005  Tot=              6.0977
 Quadrupole moment (field-independent basis, Debye-Ang):
   XX=           -446.7475   YY=           -464.5003   ZZ=           -477.9802
   XY=             -2.9003   XZ=             16.3461   YZ=             -3.0433

 Normal termination of Gaussian 16 at Fri Feb  7 06:34:35 2020.
