 Gaussian 16, Revision A.03,
 Gaussian 16:  ES64L-G16RevA.03 25-Dec-2016

 ----------------------------------------------------------------------
 # wB97XD/Def2SVP # Geom=Checkpoint Guess=Read # Opt=(maxstep=5,maxcycl
 e=100) # SCRF=(SMD,Solvent=Water) # Integral=(Grid=UltraFineGrid)
 ----------------------------------------------------------------------

 --------------------------------
 Geometry optimisation, Mol: A3_3
 --------------------------------
 Structure from the checkpoint file:  "/users/psyche/volatile/gaussian/nanohybrid/chk/A3_3.chk"
 Charge =  0 Multiplicity = 1

 SCF Done:  E(RwB97XD) =  -3055.32076457     A.U. after    1 cycles
 SCF Done:  E(RwB97XD) =  -3055.32077184     A.U. after    9 cycles
 SCF Done:  E(RwB97XD) =  -3055.32077050     A.U. after    9 cycles
 SCF Done:  E(RwB97XD) =  -3055.32077852     A.U. after    9 cycles
 SCF Done:  E(RwB97XD) =  -3055.32078067     A.U. after    8 cycles
 SCF Done:  E(RwB97XD) =  -3055.32078100     A.U. after    7 cycles
 SCF Done:  E(RwB97XD) =  -3055.32078111     A.U. after    7 cycles
 SCF Done:  E(RwB97XD) =  -3055.32078128     A.U. after    7 cycles
 SCF Done:  E(RwB97XD) =  -3055.32078165     A.U. after    8 cycles
 SCF Done:  E(RwB97XD) =  -3055.32078181     A.U. after    7 cycles
 SCF Done:  E(RwB97XD) =  -3055.32078186     A.U. after    6 cycles
 Optimization completed.
    -- Stationary point found.

                         Standard orientation:
 ---------------------------------------------------------------------
 Center     Atomic      Atomic             Coordinates (Angstroms)
 Number     Number       Type             X           Y           Z
 ---------------------------------------------------------------------
      1          6           0        3.422197    2.625912   -0.246209
      2          6           0        2.536195    2.280190    2.022880
      3          6           0        3.761591   -2.115104    2.464985
      4          6           0        1.472960   -0.909376   -3.484881
      5          6           0        0.532057   -3.389763    1.657637
      6          6           0        2.440553    2.883784    0.708733
      7          6           0        0.995134   -3.281314   -1.995444
      8          6           0        4.990746   -0.232659    1.463129
      9          6           0       -1.049799    0.380338    1.921931
     10          6           0        0.187346   -1.203421   -3.036539
     11          6           0       -1.523455    1.509295   -0.178125
     12          6           0       -1.593379   -0.608234    1.013912
     13          6           0       -1.054016   -2.129852   -1.271919
     14          6           0        1.092721   -3.893831   -0.682965
     15          6           0        0.264261    2.356526    1.446137
     16          6           0        2.877812   -3.717836    0.997177
     17          6           0       -0.668477    2.138404   -1.380528
     18          6           0       -0.209658    1.128768   -2.427560
     19          6           0        1.876863   -3.434498    2.006181
     20          6           0        4.626387   -1.381518   -1.890712
     21          6           0        4.779490   -2.354595    0.238753
     22          6           0        5.266684   -0.991744    0.332311
     23          6           0        4.609929    1.157293    1.328340
     24          6           0        1.130077    1.426347   -2.850580
     25          6           0       -0.846263    1.592274    1.182969
     26          6           0        3.598096    1.440833    2.329686
     27          6           0       -0.052147   -2.415809   -2.279307
     28          6           0        1.196211    1.955784    2.470591
     29          6           0       -1.247341   -1.949377    1.154715
     30          6           0        3.361762    0.398038   -3.021686
     31          6           0        4.221734   -0.806850    2.553168
     32          6           0       -1.716696    0.000149   -0.280119
     33          6           0        4.810820    0.944623   -1.112932
     34          6           0       -0.971568   -2.733699   -0.019264
     35          6           0       -0.177468   -0.008838    2.935428
     36          6           0        3.261873   -3.368836   -1.409050
     37          6           0        2.337490   -2.964966   -2.447093
     38          6           0        0.200173   -1.404870    3.068189
     39          6           0        1.956689    0.442520   -3.387553
     40          6           0       -0.662656   -0.163780   -2.510157
     41          6           0        3.740482   -0.994675   -2.889448
     42          6           0        0.675120    2.717555   -0.965439
     43          6           0        2.082811   -0.084802    3.525705
     44          6           0       -1.441563   -0.747494   -1.397656
     45          6           0       -0.322389   -2.352153    2.199777
     46          6           0        3.885378    1.345436   -2.153803
     47          6           0        2.423352   -2.443554    2.913710
     48          6           0        4.522464    1.736495    0.068422
     49          6           0        4.044070   -2.903609    1.281000
     50          6           0        0.976801    0.800700    3.218719
     51          6           0        1.601683   -1.450657    3.434470
     52          6           0        1.049143    2.941109    0.335971
     53          6           0        1.677519    2.413912   -1.943609
     54          6           0        4.382662   -2.594220   -1.135572
     55          6           0        3.365375    0.227883    3.092299
     56          6           0        0.130951   -3.624562    0.283122
     57          6           0        2.570303   -1.803742   -3.173980
     58          6           0        2.492688   -3.943072   -0.318961
     59          6           0        3.028787    2.383312   -1.608506
     60          6           0        5.173336   -0.390831   -0.983179
     61          1           0       -4.778601    2.564411    0.712416
     62          1           0       -3.738704    1.374001    1.475959
     63          1           0       -3.297950    4.042319    2.127871
     64          1           0       -2.386622    6.360599    2.280048
     65          1           0       -1.084130    7.328254    0.410986
     66          1           0       -0.651811    5.995445   -1.659305
     67          6           0       -2.733500    4.469252    1.295605
     68          6           0       -2.214348    5.767590    1.378894
     69          6           0       -1.478930    6.313332    0.324402
     70          6           0       -1.240152    5.573933   -0.841057
     71          6           0       -2.513221    3.749160    0.129784
     72          6           0       -1.773342    4.295778   -0.925971
     73          1           0       -3.075422    1.548597   -2.339506
     74          1           0       -3.858184    3.138139   -2.076029
     75          1           0       -1.373996    3.537293   -2.976211
     76          6           0       -3.006172    2.502138   -1.796174
     77          6           0       -2.890299    2.332967   -0.266770
     78          6           0       -1.659757    3.213565   -1.969293
     79          6           0       -9.450168   -3.310990    0.155699
     80          1           0       -9.392394   -4.982637   -1.239660
     81          1           0      -10.532177   -3.696926   -1.694928
     82          1           0      -10.936381   -4.815720   -0.372870
     83          6           0      -10.114522   -4.252721   -0.840260
     84          8           0       -6.601419   -0.876627   -0.125175
     85          6           0       -5.905044    0.009927    0.581823
     86          6           0       -4.827831    0.652224   -0.246305
     87          6           0       -4.074211    1.746977    0.494883
     88          1           0       -5.302293    1.040739   -1.160613
     89          1           0       -4.165260   -0.160330   -0.581065
     90          8           0       -6.128260    0.243338    1.750867
     91          6           0       -8.304086   -2.513378   -0.459407
     92          6           0       -7.656455   -1.582115    0.541141
     93          1           0       -9.070473   -3.888778    1.015572
     94          1           0      -10.201085   -2.612693    0.563022
     95          1           0       -8.675804   -1.920535   -1.311945
     96          1           0       -7.539313   -3.201727   -0.856545
     97          1           0       -7.233490   -2.137269    1.393184
     98          1           0       -8.379655   -0.852734    0.938488
 ---------------------------------------------------------------------

 The electronic state is 1-A.
 Alpha  occ. eigenvalues --  -19.30427 -19.25223 -10.43275 -10.35010 -10.34920
 Alpha  occ. eigenvalues --  -10.34649 -10.33852 -10.33824 -10.33821 -10.33816
 Alpha  occ. eigenvalues --  -10.33815 -10.33815 -10.33814 -10.33813 -10.33808
 Alpha  occ. eigenvalues --  -10.33797 -10.33796 -10.33793 -10.33791 -10.33770
 Alpha  occ. eigenvalues --  -10.33764 -10.33764 -10.33758 -10.33756 -10.33753
 Alpha  occ. eigenvalues --  -10.33752 -10.33738 -10.33735 -10.33732 -10.33727
 Alpha  occ. eigenvalues --  -10.33723 -10.33722 -10.33720 -10.33716 -10.33712
 Alpha  occ. eigenvalues --  -10.33704 -10.33702 -10.33693 -10.33688 -10.33686
 Alpha  occ. eigenvalues --  -10.33681 -10.33675 -10.33671 -10.33664 -10.33658
 Alpha  occ. eigenvalues --  -10.33657 -10.33639 -10.33598 -10.33485 -10.33471
 Alpha  occ. eigenvalues --  -10.33466 -10.33461 -10.33451 -10.33435 -10.33422
 Alpha  occ. eigenvalues --  -10.33406 -10.33353 -10.33344 -10.33329 -10.33313
 Alpha  occ. eigenvalues --  -10.33312 -10.33291 -10.33285 -10.33273 -10.32949
 Alpha  occ. eigenvalues --  -10.31955 -10.30417 -10.30413 -10.30372 -10.30334
 Alpha  occ. eigenvalues --  -10.30318 -10.30181 -10.30141 -10.30050 -10.29998
 Alpha  occ. eigenvalues --  -10.28904 -10.28826 -10.28064  -1.20637  -1.11242
 Alpha  occ. eigenvalues --   -1.06657  -1.04708  -1.04659  -1.04650  -1.01739
 Alpha  occ. eigenvalues --   -1.00853  -1.00845  -1.00785  -1.00729  -0.98843
 Alpha  occ. eigenvalues --   -0.96824  -0.96737  -0.96402  -0.93766  -0.93577
 Alpha  occ. eigenvalues --   -0.93404  -0.93259  -0.91822  -0.90290  -0.89248
 Alpha  occ. eigenvalues --   -0.88385  -0.88232  -0.88192  -0.87952  -0.87704
 Alpha  occ. eigenvalues --   -0.86572  -0.86471  -0.86271  -0.85832  -0.85167
 Alpha  occ. eigenvalues --   -0.82967  -0.81793  -0.81206  -0.80588  -0.80415
 Alpha  occ. eigenvalues --   -0.80412  -0.80242  -0.79884  -0.79359  -0.79185
 Alpha  occ. eigenvalues --   -0.78287  -0.75558  -0.75257  -0.75016  -0.74582
 Alpha  occ. eigenvalues --   -0.72102  -0.71576  -0.71309  -0.71227  -0.71132
 Alpha  occ. eigenvalues --   -0.71046  -0.70589  -0.70584  -0.70283  -0.70079
 Alpha  occ. eigenvalues --   -0.68943  -0.66768  -0.66577  -0.65542  -0.64453
 Alpha  occ. eigenvalues --   -0.64345  -0.64168  -0.63965  -0.63679  -0.61790
 Alpha  occ. eigenvalues --   -0.61620  -0.61458  -0.61394  -0.61138  -0.60753
 Alpha  occ. eigenvalues --   -0.60413  -0.60261  -0.60119  -0.59487  -0.59043
 Alpha  occ. eigenvalues --   -0.57829  -0.57800  -0.57473  -0.57229  -0.56997
 Alpha  occ. eigenvalues --   -0.56475  -0.55990  -0.55260  -0.55250  -0.55120
 Alpha  occ. eigenvalues --   -0.55005  -0.54906  -0.54746  -0.54619  -0.53731
 Alpha  occ. eigenvalues --   -0.53494  -0.53221  -0.53001  -0.52923  -0.52900
 Alpha  occ. eigenvalues --   -0.52761  -0.52216  -0.51907  -0.51564  -0.51478
 Alpha  occ. eigenvalues --   -0.51406  -0.51106  -0.50791  -0.50574  -0.50498
 Alpha  occ. eigenvalues --   -0.50344  -0.50299  -0.50132  -0.49874  -0.49627
 Alpha  occ. eigenvalues --   -0.49495  -0.48751  -0.48628  -0.48455  -0.48365
 Alpha  occ. eigenvalues --   -0.48276  -0.47986  -0.47098  -0.46571  -0.46347
 Alpha  occ. eigenvalues --   -0.46145  -0.44784  -0.44672  -0.44487  -0.44212
 Alpha  occ. eigenvalues --   -0.43969  -0.43910  -0.43866  -0.43739  -0.43688
 Alpha  occ. eigenvalues --   -0.43493  -0.43354  -0.43257  -0.42834  -0.42763
 Alpha  occ. eigenvalues --   -0.42690  -0.42655  -0.42313  -0.42273  -0.42092
 Alpha  occ. eigenvalues --   -0.41787  -0.41623  -0.41427  -0.41381  -0.40615
 Alpha  occ. eigenvalues --   -0.40235  -0.40062  -0.39721  -0.38828  -0.37850
 Alpha  occ. eigenvalues --   -0.36966  -0.34638  -0.34435  -0.34423  -0.34382
 Alpha  occ. eigenvalues --   -0.34204  -0.33799  -0.33730  -0.33019  -0.32132
 Alpha  occ. eigenvalues --   -0.31879  -0.29991  -0.28707  -0.28394  -0.28222
 Alpha  occ. eigenvalues --   -0.27522
 Alpha virt. eigenvalues --   -0.06676  -0.06117  -0.05175  -0.01606  -0.00834
 Alpha virt. eigenvalues --   -0.00182   0.00354   0.03179   0.03212   0.03300
 Alpha virt. eigenvalues --    0.03523   0.03542   0.03925   0.05574   0.05795

 Mulliken charges:
               1
     1  C   -0.005718
     2  C   -0.002552
     3  C   -0.002028
     4  C   -0.008004
     5  C   -0.000997
     6  C   -0.000520
     7  C   -0.006381
     8  C   -0.002935
     9  C    0.045765
    10  C    0.000200
    11  C   -0.120886
    12  C    0.043356
    13  C    0.000054
    14  C   -0.001455
    15  C   -0.025190
    16  C   -0.002044
    17  C   -0.203989
    18  C    0.045282
    19  C   -0.001643
    20  C   -0.001909
    21  C   -0.002713
    22  C   -0.001850
    23  C   -0.001908
    24  C    0.035225
    25  C    0.057599
    26  C   -0.006170
    27  C   -0.003038
    28  C    0.004216
    29  C   -0.022295
    30  C   -0.003384
    31  C   -0.002563
    32  C    0.012684
    33  C   -0.000528
    34  C   -0.008277
    35  C   -0.024272
    36  C   -0.003168
    37  C   -0.001693
    38  C   -0.003533
    39  C   -0.021509
    40  C   -0.006643
    41  C   -0.000408
    42  C    0.042404
    43  C   -0.006024
    44  C    0.002805
    45  C   -0.004187
    46  C   -0.003548
    47  C   -0.001905
    48  C   -0.006656
    49  C   -0.002529
    50  C   -0.009758
    51  C   -0.000539
    52  C   -0.013449
    53  C    0.051361
    54  C   -0.001877
    55  C   -0.002363
    56  C   -0.007211
    57  C   -0.005925
    58  C   -0.002693
    59  C   -0.027537
    60  C   -0.001826
    61  H    0.042105
    62  H    0.038658
    63  H    0.035139
    64  H    0.046323
    65  H    0.046989
    66  H    0.032684
    67  C   -0.110682
    68  C   -0.041259
    69  C   -0.041871
    70  C   -0.106376
    71  C    0.081035
    72  C    0.031248
    73  H    0.048306
    74  H    0.059673
    75  H    0.025230
    76  C    0.192613
    77  C   -0.286240
    78  C    0.062640
    79  C   -0.116304
    80  H    0.039564
    81  H    0.039472
    82  H    0.044890
    83  C   -0.063878
    84  O   -0.347033
    85  C    0.261969
    86  C   -0.050832
    87  C    0.101040
    88  H    0.086049
    89  H    0.088845
    90  O   -0.349982
    91  C   -0.088502
    92  C    0.187126
    93  H    0.040133
    94  H    0.039984
    95  H    0.042754
    96  H    0.042896
    97  H    0.051722
    98  H    0.051151
 Sum of Mulliken charges =  -0.00000

 Dipole moment (field-independent basis, Debye):
    X=             -4.4341    Y=              1.5280    Z=             -3.6592  Tot=              5.9486
 Quadrupole moment (field-independent basis, Debye-Ang):
   XX=           -430.4066   YY=           -432.1247   ZZ=           -447.7355
   XY=              7.0409   XZ=             13.9433   YZ=             -6.4656

 Normal termination of Gaussian 16 at Mon Feb 10 21:13:18 2020.
