 Gaussian 16, Revision A.03,
 Gaussian 16:  ES64L-G16RevA.03 25-Dec-2016

 ----------------------------------------------------------------------
 # wB97XD/Def2SVP # Opt # SCRF=(SMD,Solvent=Water) # Integral=(Grid=Ult
 raFineGrid)
 ----------------------------------------------------------------------

 ---------------------
 Modified structure D2
 ---------------------
 Symbolic Z-matrix:
 Charge =  0 Multiplicity = 1

 SCF Done:  E(RwB97XD) =  -6085.92224579     A.U. after   15 cycles
 SCF Done:  E(RwB97XD) =  -6086.03231141     A.U. after   15 cycles
 SCF Done:  E(RwB97XD) =  -6086.20142612     A.U. after   15 cycles
 SCF Done:  E(RwB97XD) =  -6086.25588576     A.U. after   16 cycles
 SCF Done:  E(RwB97XD) =  -6086.27762539     A.U. after   15 cycles
 SCF Done:  E(RwB97XD) =  -6086.28232384     A.U. after   16 cycles
 SCF Done:  E(RwB97XD) =  -6086.27377891     A.U. after   15 cycles
 SCF Done:  E(RwB97XD) =  -6086.29267831     A.U. after   15 cycles
 SCF Done:  E(RwB97XD) =  -6086.29917666     A.U. after   15 cycles
 SCF Done:  E(RwB97XD) =  -6086.28843762     A.U. after   15 cycles
 SCF Done:  E(RwB97XD) =  -6086.30399316     A.U. after    9 cycles
 SCF Done:  E(RwB97XD) =  -6086.30399423     A.U. after   10 cycles
 SCF Done:  E(RwB97XD) =  -6086.30399484     A.U. after    8 cycles
 SCF Done:  E(RwB97XD) =  -6086.30399257     A.U. after   10 cycles
 SCF Done:  E(RwB97XD) =  -6086.30399298     A.U. after   10 cycles
 SCF Done:  E(RwB97XD) =  -6086.30399273     A.U. after    7 cycles
 SCF Done:  E(RwB97XD) =  -6086.30399306     A.U. after    7 cycles
 SCF Done:  E(RwB97XD) =  -6086.30399318     A.U. after    7 cycles
 SCF Done:  E(RwB97XD) =  -6086.30399316     A.U. after    6 cycles
 SCF Done:  E(RwB97XD) =  -6086.30399318     A.U. after    5 cycles
 Optimization completed.
    -- Stationary point found.

                         Standard orientation:
 ---------------------------------------------------------------------
 Center     Atomic      Atomic             Coordinates (Angstroms)
 Number     Number       Type             X           Y           Z
 ---------------------------------------------------------------------
      1          6           0        2.588268   -2.145680    1.707598
      2          6           0       12.023895    1.261187   -0.004075
      3          6           0       11.251764    2.430764    0.039009
      4          6           0        2.428676   -2.440134    4.016373
      5          7           0       14.029740   -1.914834   -0.697616
      6          1           0        2.009307   -2.308644    5.015084
      7          6           0        3.515546   -3.235477    3.770756
      8          7           0      -10.053904    2.675701    2.245978
      9          1           0        1.044678   -1.142624    2.851168
     10          6           0        1.901611   -1.816815    2.844743
     11          6           0        1.069665   -0.855251    0.166309
     12          6           0       -1.278265   -0.498954    0.114274
     13          6           0       -1.078117    0.870819   -0.160242
     14          6           0        0.199519    1.394578   -0.280152
     15          6           0        1.269955    0.513633   -0.112499
     16          1           0        2.380462   -6.177803   -3.745108
     17          1           0        3.470390   -3.821739   -3.794165
     18          7           0       10.046137   -3.072480   -1.501407
     19          6           0        5.132290    1.059483   -0.304049
     20          6           0        2.707833    0.724080   -0.171984
     21          6           0       10.690970   -2.189933   -1.111737
     22         16           0        6.175629   -1.259307    0.108539
     23          8           0        8.923795    2.918609   -0.252064
     24          6           0        7.237541    0.116222   -0.204670
     25         16           0        3.731049    2.085912   -0.473431
     26          6           0        6.515881    1.285133   -0.405853
     27          6           0        3.033807   -3.715486   -2.799909
     28          1           0        5.371682   -3.746596    4.747677
     29          6           0        2.297965   -4.705529   -2.206312
     30          1           0        4.278213   -5.122740    4.492165
     31          6           0        9.825624    2.104167   -0.194141
     32          1           0        3.909871   -3.917746    5.750859
     33          6           0        4.313598   -4.050157    4.737806
     34          1           0        3.720973   -1.656972   -2.302889
     35          6           0        4.780917   -0.269436   -0.022962
     36          6           0        3.379353   -0.451802    0.052868
     37          6           0       11.804404    3.679921    0.281867
     38          6           0       11.134636    0.119409   -0.321150
     39          1           0        6.994657    2.237614   -0.618220
     40          6           0       13.399526    1.338846    0.224110
     41          6           0       13.179771    3.752437    0.502759
     42          6           0       13.960066    2.592297    0.479041
     43          6           0       12.933703   -1.535706   -0.671220
     44          1           0        2.354454   -6.861417   -2.100568
     45          1           0        0.864892   -6.203645   -2.809807
     46          7           0      -14.043686    1.732282    1.138511
     47          6           0       -0.207949   -1.379613    0.283119
     48          1           0        0.367060    2.450662   -0.500688
     49          1           0       -0.375498   -2.435531    0.504411
     50          6           0        2.410359   -1.596938    0.301230
     51         16           0        3.894364   -3.231941    2.078109
     52         16           0        1.778946   -4.208226   -0.627667
     53          6           0        1.953980   -6.059423   -2.739693
     54          6           0       11.557279   -1.142213   -0.661458
     55          6           0        2.551144   -2.657904   -0.776839
     56          6           0        3.176667   -2.548743   -1.989334
     57          1           0       11.172824    4.570076    0.300906
     58          1           0       13.651463    4.716895    0.700247
     59          6           0        8.639466   -0.174619   -0.236482
     60          6           0        9.750313    0.621189   -0.305040
     61          1           0        8.840522   -1.246115   -0.157604
     62          6           0       -2.419212    1.614047   -0.284264
     63          1           0       15.033434    2.663476    0.664743
     64          1           0       14.042209    0.460924    0.222005
     65          6           0       -3.387939    0.468252   -0.036865
     66          6           0       -2.715931   -0.709776    0.174410
     67          6           0       -4.789329    0.286096    0.047310
     68          6           0       -5.139551   -1.046157    0.311252
     69         16           0       -3.738405   -2.074592    0.464038
     70         16           0       -6.184644    1.280701   -0.053891
     71          6           0       -7.244008   -0.099879    0.238475
     72          6           0       -6.523631   -1.272564    0.414521
     73          6           0       -2.604865    2.169725   -1.686892
     74          6           0       -2.552683    2.669754    0.799745
     75          6           0       -8.647346    0.181372    0.307812
     76          6           0       -9.742956   -0.636581    0.290807
     77          6           0       -3.169132    2.554139    2.016289
     78          6           0       -3.020593    3.716761    2.831745
     79          6           0       -2.289516    4.710079    2.237716
     80         16           0       -1.782133    4.221071    0.652704
     81         16           0       -3.914087    3.256138   -2.045619
     82          6           0       -3.542797    3.269535   -3.739878
     83          6           0       -2.456069    2.476900   -3.994756
     84          6           0       -1.922945    1.847931   -2.828918
     85          6           0       -9.800624   -2.084185   -0.058054
     86          6           0      -11.218023   -2.369829   -0.387522
     87          6           0      -12.001848   -1.228537   -0.162207
     88          6           0      -11.131822   -0.162013    0.381942
     89          6           0       -4.346331    4.088421   -4.698809
     90          6           0       -1.942215    6.061461    2.775299
     91          8           0       -8.893030   -2.891917   -0.107200
     92          6           0      -11.564947    0.998368    0.973074
     93          6           0      -11.754715   -3.557078   -0.864174
     94          6           0      -13.122353   -3.590790   -1.137730
     95          6           0      -13.911988   -2.454725   -0.934327
     96          6           0      -13.368892   -1.265492   -0.443119
     97          6           0      -10.701524    1.913507    1.657805
     98          6           0      -12.943347    1.376279    1.048165
     99          1           0       -6.999182   -2.229045    0.615225
    100          1           0       -8.862914    1.253420    0.342511
    101          1           0       -3.710666    1.660492    2.329325
    102          1           0       -3.449702    3.817761    3.829797
    103          1           0       -2.041124    2.351290   -4.996070
    104          1           0       -1.065213    1.174879   -2.842781
    105          1           0       -3.947304    3.961783   -5.714462
    106          1           0       -5.404123    3.783761   -4.705209
    107          1           0       -4.310901    5.159726   -4.447655
    108          1           0       -0.852702    6.206796    2.835741
    109          1           0       -2.349875    6.866409    2.144476
    110          1           0       -2.359212    6.173733    3.785383
    111          1           0      -11.117432   -4.429320   -1.021264
    112          1           0      -13.580444   -4.505746   -1.517997
    113          1           0      -14.978308   -2.494082   -1.164664
    114          1           0      -14.015304   -0.400520   -0.306719
 ---------------------------------------------------------------------

 The electronic state is 1-A.
 Alpha  occ. eigenvalues --  -89.06059 -89.06045 -89.05911 -89.05895 -89.03792
 Alpha  occ. eigenvalues --  -89.03791 -89.03783 -89.03778 -19.26983 -19.26974
 Alpha  occ. eigenvalues --  -14.46798 -14.46724 -14.46700 -14.46690 -10.40992
 Alpha  occ. eigenvalues --  -10.40941 -10.38393 -10.38376 -10.38334 -10.38284
 Alpha  occ. eigenvalues --  -10.36974 -10.36916 -10.36893 -10.36888 -10.36449
 Alpha  occ. eigenvalues --  -10.36446 -10.36152 -10.36138 -10.35727 -10.35689
 Alpha  occ. eigenvalues --  -10.35453 -10.35414 -10.35171 -10.35128 -10.34834
 Alpha  occ. eigenvalues --  -10.34812 -10.33927 -10.33926 -10.33678 -10.33675
 Alpha  occ. eigenvalues --  -10.33672 -10.33670 -10.33669 -10.33653 -10.33404
 Alpha  occ. eigenvalues --  -10.33400 -10.33367 -10.33330 -10.33253 -10.33247
 Alpha  occ. eigenvalues --  -10.33146 -10.33145 -10.33138 -10.33137 -10.33043
 Alpha  occ. eigenvalues --  -10.33037 -10.32552 -10.32539 -10.32376 -10.32356
 Alpha  occ. eigenvalues --  -10.32326 -10.32287 -10.32256 -10.32242 -10.32132
 Alpha  occ. eigenvalues --  -10.32126 -10.32092 -10.32086 -10.30496 -10.30495
 Alpha  occ. eigenvalues --  -10.30424 -10.30422 -10.29939 -10.29939 -10.29938
 Alpha  occ. eigenvalues --  -10.29938 -10.29856 -10.29856 -10.29852 -10.29850
 Alpha  occ. eigenvalues --   -8.11167  -8.11154  -8.11022  -8.11007  -8.08979
 Alpha  occ. eigenvalues --   -8.08975  -8.08973  -8.08971  -6.06548  -6.06535
 Alpha  occ. eigenvalues --   -6.06394  -6.06380  -6.06184  -6.06171  -6.06021
 Alpha  occ. eigenvalues --   -6.06007  -6.05740  -6.05728  -6.05619  -6.05602
 Alpha  occ. eigenvalues --   -6.04329  -6.04325  -6.04325  -6.04323  -6.03952
 Alpha  occ. eigenvalues --   -6.03948  -6.03948  -6.03947  -6.03626  -6.03622
 Alpha  occ. eigenvalues --   -6.03620  -6.03619  -1.15437  -1.15428  -1.04254
 Alpha  occ. eigenvalues --   -1.03866  -1.03288  -1.03255  -1.01500  -1.01459
 Alpha  occ. eigenvalues --   -1.01198  -1.00699  -1.00588  -1.00332  -0.98787
 Alpha  occ. eigenvalues --   -0.98201  -0.98174  -0.98172  -0.96246  -0.95571
 Alpha  occ. eigenvalues --   -0.95206  -0.94042  -0.91703  -0.91393  -0.91325
 Alpha  occ. eigenvalues --   -0.89738  -0.89049  -0.88336  -0.87296  -0.86632
 Alpha  occ. eigenvalues --   -0.86417  -0.86369  -0.85779  -0.85667  -0.85570
 Alpha  occ. eigenvalues --   -0.84263  -0.83610  -0.83506  -0.83222  -0.83034
 Alpha  occ. eigenvalues --   -0.82605  -0.82496  -0.81248  -0.80802  -0.79853
 Alpha  occ. eigenvalues --   -0.79292  -0.77584  -0.77438  -0.76878  -0.76874
 Alpha  occ. eigenvalues --   -0.76522  -0.74546  -0.73865  -0.73299  -0.71670
 Alpha  occ. eigenvalues --   -0.71043  -0.70502  -0.70353  -0.69515  -0.69358
 Alpha  occ. eigenvalues --   -0.68788  -0.67212  -0.67155  -0.66298  -0.66273
 Alpha  occ. eigenvalues --   -0.66204  -0.64917  -0.64498  -0.64446  -0.63430
 Alpha  occ. eigenvalues --   -0.63003  -0.62560  -0.62452  -0.62399  -0.62242
 Alpha  occ. eigenvalues --   -0.62208  -0.61791  -0.61574  -0.61483  -0.59868
 Alpha  occ. eigenvalues --   -0.59731  -0.59528  -0.59421  -0.58556  -0.58194
 Alpha  occ. eigenvalues --   -0.57700  -0.57455  -0.56599  -0.56110  -0.56094
 Alpha  occ. eigenvalues --   -0.55113  -0.54939  -0.54809  -0.54762  -0.54361
 Alpha  occ. eigenvalues --   -0.54156  -0.53939  -0.53488  -0.53469  -0.53266
 Alpha  occ. eigenvalues --   -0.53227  -0.53009  -0.52881  -0.52622  -0.52091
 Alpha  occ. eigenvalues --   -0.51522  -0.51456  -0.51380  -0.51326  -0.51232
 Alpha  occ. eigenvalues --   -0.51154  -0.51017  -0.50929  -0.50821  -0.50801
 Alpha  occ. eigenvalues --   -0.50309  -0.50138  -0.49565  -0.49504  -0.49365
 Alpha  occ. eigenvalues --   -0.49276  -0.49197  -0.48952  -0.48155  -0.48135
 Alpha  occ. eigenvalues --   -0.48039  -0.47933  -0.47564  -0.47528  -0.47503
 Alpha  occ. eigenvalues --   -0.47441  -0.47388  -0.46850  -0.46688  -0.46628
 Alpha  occ. eigenvalues --   -0.46502  -0.46234  -0.45926  -0.45921  -0.45853
 Alpha  occ. eigenvalues --   -0.45837  -0.45728  -0.45662  -0.45112  -0.45062
 Alpha  occ. eigenvalues --   -0.45035  -0.45022  -0.45018  -0.44959  -0.44763
 Alpha  occ. eigenvalues --   -0.44735  -0.44047  -0.44006  -0.43929  -0.43569
 Alpha  occ. eigenvalues --   -0.43525  -0.43382  -0.43217  -0.43194  -0.43067
 Alpha  occ. eigenvalues --   -0.42727  -0.42670  -0.42303  -0.41997  -0.41954
 Alpha  occ. eigenvalues --   -0.41802  -0.41583  -0.39491  -0.38820  -0.38774
 Alpha  occ. eigenvalues --   -0.36977  -0.35956  -0.35788  -0.35451  -0.35325
 Alpha  occ. eigenvalues --   -0.35099  -0.34254  -0.33954  -0.33941  -0.33312
 Alpha  occ. eigenvalues --   -0.33006  -0.32867  -0.32679  -0.32053  -0.31974
 Alpha  occ. eigenvalues --   -0.31098  -0.30690  -0.30190  -0.30040  -0.29505
 Alpha  occ. eigenvalues --   -0.26717
 Alpha virt. eigenvalues --   -0.06861  -0.05992  -0.03742  -0.03372  -0.00308
 Alpha virt. eigenvalues --    0.02391   0.02509   0.04087   0.04298   0.04730
 Alpha virt. eigenvalues --    0.04825   0.05454   0.05581   0.05836   0.06053

 Mulliken charges:
               1
     1  C   -0.123782
     2  C    0.026638
     3  C   -0.055734
     4  C   -0.038618
     5  N    0.014216
     6  H    0.044220
     7  C   -0.244283
     8  N    0.020801
     9  H    0.051380
    10  C   -0.025008
    11  C   -0.000683
    12  C    0.019049
    13  C   -0.000923
    14  C   -0.077428
    15  C    0.018601
    16  H    0.063060
    17  H    0.044000
    18  N    0.019769
    19  C   -0.082716
    20  C   -0.047797
    21  C   -0.089673
    22  S    0.169361
    23  O   -0.249831
    24  C   -0.163611
    25  S    0.186001
    26  C   -0.002648
    27  C   -0.034973
    28  H    0.071350
    29  C   -0.244645
    30  H    0.072006
    31  C    0.252583
    32  H    0.062938
    33  C    0.041481
    34  H    0.051475
    35  C   -0.033454
    36  C   -0.041630
    37  C   -0.046754
    38  C    0.275396
    39  H    0.061579
    40  C   -0.049874
    41  C   -0.007972
    42  C   -0.008718
    43  C   -0.071948
    44  H    0.071991
    45  H    0.071380
    46  N    0.014383
    47  C   -0.077822
    48  H    0.025419
    49  H    0.025273
    50  C    0.030345
    51  S    0.109179
    52  S    0.112321
    53  C    0.040827
    54  C   -0.343331
    55  C   -0.125672
    56  C   -0.029717
    57  H    0.051490
    58  H    0.067570
    59  C    0.072617
    60  C   -0.116910
    61  H    0.064428
    62  C    0.030314
    63  H    0.065850
    64  H    0.047131
    65  C   -0.040311
    66  C   -0.049285
    67  C   -0.037154
    68  C   -0.084064
    69  S    0.185749
    70  S    0.171784
    71  C   -0.164990
    72  C    0.001650
    73  C   -0.123804
    74  C   -0.125712
    75  C    0.067235
    76  C   -0.116743
    77  C   -0.029888
    78  C   -0.034961
    79  C   -0.244670
    80  S    0.112322
    81  S    0.109197
    82  C   -0.244294
    83  C   -0.038637
    84  C   -0.025026
    85  C    0.251751
    86  C   -0.055906
    87  C    0.027268
    88  C    0.264798
    89  C    0.041478
    90  C    0.040808
    91  O   -0.249848
    92  C   -0.336805
    93  C   -0.047106
    94  C   -0.008423
    95  C   -0.008524
    96  C   -0.049409
    97  C   -0.092982
    98  C   -0.071463
    99  H    0.063425
   100  H    0.074634
   101  H    0.051403
   102  H    0.044002
   103  H    0.044197
   104  H    0.051311
   105  H    0.062940
   106  H    0.071329
   107  H    0.071988
   108  H    0.071324
   109  H    0.072020
   110  H    0.063064
   111  H    0.051913
   112  H    0.067677
   113  H    0.066091
   114  H    0.048380
 Sum of Mulliken charges =  -0.00000

 Dipole moment (field-independent basis, Debye):
    X=             -0.1665    Y=              0.7651    Z=             -1.3040  Tot=              1.5210
 Quadrupole moment (field-independent basis, Debye-Ang):
   XX=           -550.8666   YY=           -485.1901   ZZ=           -484.1610
   XY=            140.4773   XZ=             83.8485   YZ=            -11.5578

 Normal termination of Gaussian 16 at Fri Feb 14 21:47:56 2020.
