 Gaussian 16, Revision A.03,
 Gaussian 16:  ES64L-G16RevA.03 25-Dec-2016

 ----------------------------------------------------------------------
 # wB97XD/Def2SVP Opt # SCRF=(SMD,Solvent=Water) # Integral=(Grid=Ultra
 FineGrid)
 ----------------------------------------------------------------------

 ------------------------------
 Geometry optimisation, Mol: A6
 ------------------------------
 Symbolic Z-matrix:
 Charge =  0 Multiplicity = 1

 SCF Done:  E(RwB97XD) =  -4814.92815390     A.U. after   17 cycles
 SCF Done:  E(RwB97XD) =  -4814.96429489     A.U. after   13 cycles
 SCF Done:  E(RwB97XD) =  -4814.98338585     A.U. after   16 cycles
 SCF Done:  E(RwB97XD) =  -4814.98472120     A.U. after   15 cycles
 SCF Done:  E(RwB97XD) =  -4814.98265262     A.U. after   16 cycles
 SCF Done:  E(RwB97XD) =  -4814.98116951     A.U. after   14 cycles
 SCF Done:  E(RwB97XD) =  -4814.98036441     A.U. after   13 cycles
 SCF Done:  E(RwB97XD) =  -4814.98833438     A.U. after    9 cycles
 SCF Done:  E(RwB97XD) =  -4814.99250507     A.U. after   15 cycles
 SCF Done:  E(RwB97XD) =  -4814.99262410     A.U. after   12 cycles
 SCF Done:  E(RwB97XD) =  -4814.99325640     A.U. after   10 cycles
 SCF Done:  E(RwB97XD) =  -4814.99325841     A.U. after   10 cycles
 SCF Done:  E(RwB97XD) =  -4814.99325849     A.U. after    8 cycles
 SCF Done:  E(RwB97XD) =  -4814.99325858     A.U. after    8 cycles
 SCF Done:  E(RwB97XD) =  -4814.99326195     A.U. after   11 cycles
 SCF Done:  E(RwB97XD) =  -4814.99326288     A.U. after    8 cycles
 SCF Done:  E(RwB97XD) =  -4814.99326307     A.U. after    8 cycles
 SCF Done:  E(RwB97XD) =  -4814.99326327     A.U. after    7 cycles
 SCF Done:  E(RwB97XD) =  -4814.99326334     A.U. after    7 cycles
 SCF Done:  E(RwB97XD) =  -4814.99326336     A.U. after    6 cycles
 Optimization completed.
    -- Stationary point found.

                         Standard orientation:
 ---------------------------------------------------------------------
 Center     Atomic      Atomic             Coordinates (Angstroms)
 Number     Number       Type             X           Y           Z
 ---------------------------------------------------------------------
      1          1           0       -7.795242    2.470604    0.340115
      2          1           0       -8.411198    1.384541    1.603739
      3          6           0       -6.585166   -0.485261    0.739149
      4          1           0       -7.135913    2.571619    1.990751
      5          8           0        8.696833    0.713367    1.167877
      6          1           0        2.422794   -1.556106    0.891718
      7          6           0       10.347220   -2.724908   -1.849039
      8          1           0       -1.305514   -1.986255    0.434704
      9          1           0       -0.690764   -1.322343   -1.118046
     10          1           0        0.690926   -1.322475    1.117629
     11          6           0       -7.508358    1.878006    1.221606
     12          9           0       14.529799   -1.887023    1.633727
     13          6           0      -13.304065   -1.439674   -1.398195
     14          6           0      -12.544022   -2.005452   -0.386554
     15          7           0      -12.475667   -4.122240    2.326693
     16          1           0      -11.162491    0.918118   -2.630955
     17          1           0      -12.982293   -2.817315    0.191096
     18          1           0        1.305731   -1.986115   -0.435212
     19          6           0       12.817002   -0.397288    2.197803
     20          9           0      -14.530268   -1.886035   -1.633071
     21          6           0       -4.207044    0.195031    0.504039
     22          6           0       -6.442326    0.895704    0.868453
     23          6           0       11.541778    0.107194    2.006938
     24          1           0       12.982034   -2.817724   -0.190890
     25          1           0       11.162461    0.917830    2.631148
     26          6           0      -10.206080   -1.860099    0.793775
     27          6           0       -9.392849   -0.110412   -0.611672
     28         16           0        4.274324    2.818357   -0.779518
     29          6           0       11.256699   -1.502515    0.184895
     30          6           0       10.783127   -0.461990    0.993827
     31          6           0      -10.347120   -2.725324    1.848659
     32          6           0       12.543814   -2.005817    0.386737
     33          8           0       -8.696674    0.713118   -1.168054
     34         16           0        5.043088   -1.306272   -0.507242
     35          6           0       13.303759   -1.440331    1.398617
     36          6           0      -11.535912   -3.484516    2.091137
     37          9           0       13.606614    0.092162    3.142273
     38          6           0        0.715809    1.116089   -0.100147
     39          6           0        1.389827    2.343427   -0.301910
     40         16           0       -4.274369    2.817979    0.779828
     41          6           0        1.495524   -1.273068    0.376928
     42          6           0       -9.346005   -2.918426    2.854745
     43         16           0       -5.042923   -1.306649    0.506921
     44          6           0       -1.389860    2.343292    0.302085
     45          6           0       -0.715770    1.116028    0.100117
     46          6           0      -10.783112   -0.461959   -0.993859
     47          6           0      -11.256750   -1.502463   -0.184941
     48          7           0       -8.583736   -3.098825    3.710530
     49          6           0      -11.541856    0.107505   -2.006746
     50          6           0        0.698173    3.593114   -0.180239
     51          6           0       -0.698284    3.593040    0.180615
     52          6           0       11.535958   -3.484198   -2.091489
     53          9           0      -13.606940    0.093054   -3.141636
     54          6           0        5.079917    1.260536   -0.722051
     55          7           0       -1.208325    4.802999    0.311975
     56          1           0        7.795282    2.471118   -0.340072
     57          7           0        1.208139    4.803128   -0.311387
     58          6           0        2.753442    2.024298   -0.492074
     59          1           0        8.411216    1.385156   -1.603767
     60          1           0        7.135873    2.572205   -1.990695
     61          6           0       -7.747412   -1.309041    0.900690
     62          6           0       -9.023467   -1.048485    0.485787
     63          6           0        6.585286   -0.484777   -0.739452
     64          6           0        6.442386    0.896205   -0.868465
     65          6           0       -2.753452    2.024053    0.492218
     66          6           0       -2.867073    0.644227    0.365844
     67         16           0       -0.000127    5.865541    0.000381
     68          6           0        2.867140    0.644455   -0.365934
     69          6           0        7.508369    1.878581   -1.221593
     70          6           0       -5.079872    1.260124    0.722112
     71          6           0        9.346299   -2.917668   -2.855391
     72          6           0        4.207138    0.195360   -0.504168
     73          7           0        1.637074    0.090580   -0.110241
     74          6           0        9.392984   -0.110153    0.611444
     75          6           0        7.747522   -1.308545   -0.901043
     76          6           0        9.023573   -1.048120   -0.486068
     77          1           0        7.565106   -2.275980   -1.380405
     78          7           0       -1.636980    0.090466    0.110040
     79          6           0       10.206117   -1.859855   -0.794029
     80          6           0       -1.495357   -1.273102   -0.377329
     81          6           0      -12.817235   -0.396669   -2.197388
     82          1           0       -2.422615   -1.556121   -0.892146
     83          7           0       12.475701   -4.121964   -2.326978
     84          7           0        8.584247   -3.097823   -3.711421
     85          1           0       -7.565031   -2.276511    1.379991
 ---------------------------------------------------------------------

 The electronic state is 1-A.
 Alpha  occ. eigenvalues --  -89.09470 -89.05887 -89.05887 -89.05378 -89.05377
 Alpha  occ. eigenvalues --  -24.85335 -24.85335 -24.85272 -24.85272 -19.27051
 Alpha  occ. eigenvalues --  -19.27051 -14.52225 -14.52221 -14.48196 -14.48190
 Alpha  occ. eigenvalues --  -14.46911 -14.46911 -14.46826 -14.46826 -10.41507
 Alpha  occ. eigenvalues --  -10.41506 -10.41462 -10.41462 -10.41145 -10.41145
 Alpha  occ. eigenvalues --  -10.38639 -10.38639 -10.38536 -10.38536 -10.37058
 Alpha  occ. eigenvalues --  -10.37058 -10.37013 -10.37013 -10.36984 -10.36958
 Alpha  occ. eigenvalues --  -10.36185 -10.36156 -10.36025 -10.36025 -10.35757
 Alpha  occ. eigenvalues --  -10.35756 -10.35530 -10.35528 -10.35014 -10.35014
 Alpha  occ. eigenvalues --  -10.34955 -10.34955 -10.34551 -10.34551 -10.34322
 Alpha  occ. eigenvalues --  -10.34321 -10.34045 -10.34042 -10.34001 -10.33990
 Alpha  occ. eigenvalues --  -10.33819 -10.33819 -10.33724 -10.33724 -10.33629
 Alpha  occ. eigenvalues --  -10.33629 -10.33369 -10.33369 -10.32567 -10.32556
 Alpha  occ. eigenvalues --  -10.30208 -10.30208  -8.14351  -8.10988  -8.10988
 Alpha  occ. eigenvalues --   -8.10410  -8.10409  -6.09856  -6.09267  -6.08914
 Alpha  occ. eigenvalues --   -6.06377  -6.06377  -6.05999  -6.05999  -6.05822
 Alpha  occ. eigenvalues --   -6.05821  -6.05560  -6.05560  -6.05459  -6.05459
 Alpha  occ. eigenvalues --   -6.04937  -6.04937  -1.35182  -1.35182  -1.33567
 Alpha  occ. eigenvalues --   -1.33567  -1.15594  -1.15594  -1.12943  -1.11872
 Alpha  occ. eigenvalues --   -1.10799  -1.03506  -1.03505  -1.02429  -1.02277
 Alpha  occ. eigenvalues --   -1.01606  -1.01606  -1.01429  -1.01424  -0.99453
 Alpha  occ. eigenvalues --   -0.97244  -0.97044  -0.96513  -0.96003  -0.95177
 Alpha  occ. eigenvalues --   -0.91876  -0.91666  -0.90749  -0.89737  -0.89379
 Alpha  occ. eigenvalues --   -0.89222  -0.88296  -0.88191  -0.88047  -0.87459
 Alpha  occ. eigenvalues --   -0.85503  -0.83685  -0.83437  -0.81980  -0.80178
 Alpha  occ. eigenvalues --   -0.79863  -0.79361  -0.78715  -0.78361  -0.78297
 Alpha  occ. eigenvalues --   -0.77691  -0.76794  -0.75210  -0.73727  -0.73524
 Alpha  occ. eigenvalues --   -0.72151  -0.72008  -0.71432  -0.71387  -0.70330
 Alpha  occ. eigenvalues --   -0.69414  -0.68227  -0.67764  -0.67415  -0.66707
 Alpha  occ. eigenvalues --   -0.66265  -0.65841  -0.65840  -0.65211  -0.64842
 Alpha  occ. eigenvalues --   -0.64331  -0.62810  -0.62711  -0.61778  -0.61385
 Alpha  occ. eigenvalues --   -0.60735  -0.60564  -0.60561  -0.60348  -0.59841
 Alpha  occ. eigenvalues --   -0.59740  -0.59153  -0.58880  -0.58550  -0.57504
 Alpha  occ. eigenvalues --   -0.56989  -0.56817  -0.56816  -0.56772  -0.55603
 Alpha  occ. eigenvalues --   -0.55598  -0.55226  -0.55171  -0.55120  -0.54988
 Alpha  occ. eigenvalues --   -0.54974  -0.54851  -0.54247  -0.54223  -0.53580
 Alpha  occ. eigenvalues --   -0.53020  -0.52992  -0.52781  -0.52511  -0.51975
 Alpha  occ. eigenvalues --   -0.51917  -0.51297  -0.51284  -0.51029  -0.50971
 Alpha  occ. eigenvalues --   -0.50657  -0.50329  -0.50193  -0.50162  -0.49794
 Alpha  occ. eigenvalues --   -0.49618  -0.49301  -0.48724  -0.48333  -0.48280
 Alpha  occ. eigenvalues --   -0.48240  -0.47847  -0.47654  -0.47641  -0.47341
 Alpha  occ. eigenvalues --   -0.47331  -0.47014  -0.46923  -0.46837  -0.46822
 Alpha  occ. eigenvalues --   -0.46372  -0.45905  -0.45827  -0.45199  -0.45196
 Alpha  occ. eigenvalues --   -0.45177  -0.44910  -0.44513  -0.44430  -0.43812
 Alpha  occ. eigenvalues --   -0.43811  -0.43647  -0.43471  -0.43244  -0.42826
 Alpha  occ. eigenvalues --   -0.42116  -0.41987  -0.41550  -0.41359  -0.40627
 Alpha  occ. eigenvalues --   -0.39288  -0.37870  -0.37494  -0.36654  -0.36516
 Alpha  occ. eigenvalues --   -0.36083  -0.35952  -0.35351  -0.34925  -0.33330
 Alpha  occ. eigenvalues --   -0.33145  -0.32832  -0.32597  -0.30268  -0.29752
 Alpha  occ. eigenvalues --   -0.28780  -0.25794
 Alpha virt. eigenvalues --   -0.06558  -0.06050  -0.03822  -0.03485  -0.01516
 Alpha virt. eigenvalues --    0.01541   0.02453   0.04611   0.05205   0.05426
 Alpha virt. eigenvalues --    0.05583   0.07742   0.07781   0.08132   0.08281

 Mulliken charges:
               1
     1  H    0.079560
     2  H    0.064426
     3  C   -0.196048
     4  H    0.068240
     5  O   -0.242672
     6  H    0.078276
     7  C   -0.332650
     8  H    0.094772
     9  H    0.094915
    10  H    0.094915
    11  C    0.047291
    12  F   -0.189337
    13  C    0.249548
    14  C   -0.088341
    15  N    0.017822
    16  H    0.069631
    17  H    0.060967
    18  H    0.094773
    19  C    0.249286
    20  F   -0.189335
    21  C   -0.037463
    22  C   -0.059136
    23  C   -0.096524
    24  H    0.060968
    25  H    0.069631
    26  C    0.263958
    27  C    0.234829
    28  S    0.174477
    29  C    0.049158
    30  C   -0.054978
    31  C   -0.332657
    32  C   -0.088343
    33  O   -0.242667
    34  S    0.175532
    35  C    0.249545
    36  C   -0.072673
    37  F   -0.189363
    38  C    0.108826
    39  C   -0.107222
    40  S    0.174476
    41  C    0.065970
    42  C   -0.093701
    43  S    0.175538
    44  C   -0.107224
    45  C    0.108831
    46  C   -0.054970
    47  C    0.049161
    48  N    0.024758
    49  C   -0.096524
    50  C    0.026553
    51  C    0.026550
    52  C   -0.072674
    53  F   -0.189361
    54  C   -0.143477
    55  N   -0.332561
    56  H    0.079552
    57  N   -0.332562
    58  C   -0.099328
    59  H    0.064419
    60  H    0.068246
    61  C    0.029081
    62  C   -0.117181
    63  C   -0.196059
    64  C   -0.059128
    65  C   -0.099328
    66  C    0.064542
    67  S    0.456526
    68  C    0.064549
    69  C    0.047293
    70  C   -0.143470
    71  C   -0.093706
    72  C   -0.037462
    73  N   -0.261887
    74  C    0.234831
    75  C    0.029080
    76  C   -0.117150
    77  H    0.093833
    78  N   -0.261887
    79  C    0.263962
    80  C    0.065971
    81  C    0.249287
    82  H    0.078276
    83  N    0.017823
    84  N    0.024758
    85  H    0.093836
 Sum of Mulliken charges =  -0.00000

 Dipole moment (field-independent basis, Debye):
    X=             -0.0007    Y=             -1.3849    Z=              0.0001  Tot=              1.3849
 Quadrupole moment (field-independent basis, Debye-Ang):
   XX=           -526.6690   YY=           -454.0210   ZZ=           -454.7183
   XY=             -0.0041   XZ=             68.1737   YZ=              0.0020

 Normal termination of Gaussian 16 at Fri Feb  7 02:57:48 2020.
