 Gaussian 16, Revision A.03,
 Gaussian 16:  ES64L-G16RevA.03 25-Dec-2016

 ----------------------------------------------------------------------
 # wB97XD/Def2SVP Opt # SCRF=(SMD,Solvent=Water) # Integral=(Grid=Ultra
 FineGrid)
 ----------------------------------------------------------------------

 ------------------------------
 Geometry optimisation, Mol: A7
 ------------------------------
 Symbolic Z-matrix:
 Charge =  0 Multiplicity = 1

 SCF Done:  E(RwB97XD) =  -2262.67334754     A.U. after   13 cycles
 SCF Done:  E(RwB97XD) =  -2262.69164650     A.U. after   12 cycles
 SCF Done:  E(RwB97XD) =  -2262.69197113     A.U. after   11 cycles
 SCF Done:  E(RwB97XD) =  -2262.69195433     A.U. after   11 cycles
 SCF Done:  E(RwB97XD) =  -2262.69212227     A.U. after   10 cycles
 SCF Done:  E(RwB97XD) =  -2262.69213142     A.U. after   10 cycles
 SCF Done:  E(RwB97XD) =  -2262.69214606     A.U. after    9 cycles
 SCF Done:  E(RwB97XD) =  -2262.69214663     A.U. after    7 cycles
 SCF Done:  E(RwB97XD) =  -2262.69214696     A.U. after    7 cycles
 SCF Done:  E(RwB97XD) =  -2262.69214699     A.U. after    6 cycles
 Optimization completed.
    -- Stationary point found.

                         Standard orientation:
 ---------------------------------------------------------------------
 Center     Atomic      Atomic             Coordinates (Angstroms)
 Number     Number       Type             X           Y           Z
 ---------------------------------------------------------------------
      1          6           0       -9.192975   -1.206726   -0.023889
      2          1           0        9.746699    2.148680   -0.043992
      3          6           0        1.470350    0.065404    2.427219
      4          6           0       -7.794863   -1.231327   -0.024513
      5          6           0       -0.737663    0.017023   -1.248759
      6          1           0       -6.755186   -4.251171   -1.384617
      7          6           0        3.563247    0.041129    1.224854
      8          1           0       -6.769210   -4.317498    1.191905
      9          1           0       -7.094441   -2.718005   -2.227806
     10          1           0       -8.411524   -3.601838   -1.412817
     11          6           0        7.052534   -2.556521    0.054656
     12          6           0        9.886246    0.000079    0.000026
     13          6           0        1.433171   -0.000035   -0.000001
     14          6           0       -3.563246    0.040137   -1.224878
     15          7           0        5.681878   -0.000030   -0.000021
     16          6           0        0.737653   -0.018133   -1.248750
     17          6           0        7.122494    0.000013   -0.000022
     18          6           0       -2.871558   -0.077192    2.418428
     19          6           0        2.854266   -0.000041   -0.000007
     20          6           0        2.871557   -0.079238   -2.418355
     21          8           0        5.694607    0.079124    2.264604
     22          6           0       -5.040369    0.041824   -1.236867
     23          8           0       -5.694608    0.077186   -2.264662
     24          6           0        7.362417    3.390885    1.190799
     25          1           0       10.978614    0.000104    0.000044
     26          1           0       -8.426875   -3.672840    1.232931
     27          1           0        9.746798   -2.148529    0.044050
     28          6           0       -7.122493    0.000007    0.000027
     29          6           0        7.362677   -3.390870   -1.190778
     30          6           0        2.871578    0.079170    2.418340
     31          7           0       -5.681877   -0.000008    0.000030
     32          6           0       -2.854266   -0.000020    0.000016
     33          6           0       -1.433171   -0.000024    0.000010
     34          6           0       -1.470330   -0.063410    2.427285
     35          6           0       -1.470350    0.063366   -2.427264
     36          6           0       -7.362827   -3.390311    1.192586
     37          6           0        7.052421    2.556551   -0.054680
     38          1           0       -3.421516    0.112915   -3.359688
     39          1           0        7.121156    2.831740    2.107631
     40          1           0        8.426438    3.673492    1.231292
     41          6           0       -7.052483   -2.556557   -0.053197
     42          1           0       -9.746753   -2.148611   -0.042846
     43          1           0      -10.978613    0.000023   -0.000081
     44          6           0       -7.052471    2.556578    0.053221
     45          6           0        7.347876   -3.323396    1.346361
     46          6           0        9.193000   -1.206666    0.024561
     47          6           0       -3.563236   -0.040172    1.224916
     48          1           0        3.421517    0.115705    3.359603
     49          1           0        0.968326    0.094306    3.393048
     50          6           0        5.040359   -0.042854   -1.236878
     51          6           0       -5.040359   -0.041853    1.236919
     52          1           0        5.973643    2.344652   -0.042955
     53          1           0        7.094922    2.717003   -2.229354
     54          6           0        0.737663    0.018071    1.248753
     55          6           0       -2.871578    0.077158   -2.418395
     56          1           0        7.121469   -2.831760   -2.107645
     57          1           0        6.755432    4.250553   -1.386955
     58          6           0       -7.347753    3.324121    1.344545
     59          1           0       -5.973703   -2.344679   -0.041300
     60          1           0       -9.746740    2.148648    0.042734
     61          6           0        1.470329   -0.065465   -2.427223
     62          6           0       -0.737653   -0.017074    1.248774
     63          1           0        6.768754    4.318041    1.189549
     64          1           0       -6.755359    4.251243    1.384625
     65          1           0       -7.094705    2.718099    2.227821
     66          1           0       -8.411694    3.601886    1.412631
     67          1           0       -7.121476    2.830704   -2.109216
     68          1           0       -8.426679    3.672843   -1.233131
     69          1           0       -0.968297   -0.091493    3.393133
     70          1           0       -3.421489   -0.112944    3.359726
     71          8           0       -5.694582   -0.077153    2.264728
     72          1           0       -0.968325    0.091447   -3.393116
     73          6           0       -7.362644    3.390291   -1.192629
     74          1           0       -6.769010    4.317467   -1.191906
     75          6           0       -9.886244    0.000019   -0.000051
     76          6           0       -9.192966    1.206758    0.023812
     77          1           0        8.411820   -3.601125    1.414547
     78          6           0        7.347844    3.323466   -1.346344
     79          1           0       -7.121773   -2.830764    2.109226
     80          8           0        5.694583   -0.079080   -2.264653
     81          1           0        5.973749   -2.344663    0.042835
     82          1           0        3.421489   -0.115771   -3.359623
     83          1           0        6.769060   -4.318056   -1.189557
     84          6           0        9.192944    1.206791   -0.024523
     85          6           0        7.794889   -1.231293    0.025218
     86          6           0        3.563236   -0.041211   -1.224875
     87          1           0        0.968297   -0.094359   -3.393047
     88          6           0       -7.347597   -3.324058   -1.344581
     89          1           0        6.755487   -4.250500    1.386942
     90          1           0        7.094861   -2.716923    2.229337
     91          6           0       -7.794854    1.231349    0.024511
     92          6           0        7.794831    1.231354   -0.025226
     93          1           0       -5.973690    2.344702    0.041470
     94          6           0        5.040370    0.042754    1.236844
     95          1           0        8.426716   -3.673421   -1.231167
     96          1           0        8.411787    3.601222   -1.414433
 ---------------------------------------------------------------------

 The electronic state is 1-A.
 Alpha  occ. eigenvalues --  -19.25874 -19.25873 -19.25872 -19.25872 -14.51072
 Alpha  occ. eigenvalues --  -14.51072 -10.43608 -10.43607 -10.43600 -10.43600
 Alpha  occ. eigenvalues --  -10.34343 -10.34343 -10.34323 -10.34307 -10.34306
 Alpha  occ. eigenvalues --  -10.34295 -10.34004 -10.34001 -10.33723 -10.33713
 Alpha  occ. eigenvalues --  -10.33072 -10.33070 -10.33069 -10.33068 -10.32901
 Alpha  occ. eigenvalues --  -10.32900 -10.32900 -10.32898 -10.32207 -10.32201
 Alpha  occ. eigenvalues --  -10.32192 -10.32191 -10.31184 -10.31184 -10.31181
 Alpha  occ. eigenvalues --  -10.31181 -10.30315 -10.30315 -10.30144 -10.30144
 Alpha  occ. eigenvalues --  -10.30144 -10.30144 -10.29879 -10.29879 -10.29879
 Alpha  occ. eigenvalues --  -10.29879 -10.28268 -10.28268 -10.28268 -10.28268
 Alpha  occ. eigenvalues --  -10.28261 -10.28261 -10.28261 -10.28261  -1.17664
 Alpha  occ. eigenvalues --   -1.17664  -1.15456  -1.15456  -1.05635  -1.05628
 Alpha  occ. eigenvalues --   -1.02044  -0.99816  -0.96448  -0.96025  -0.95986
 Alpha  occ. eigenvalues --   -0.93965  -0.93795  -0.90980  -0.90980  -0.89064
 Alpha  occ. eigenvalues --   -0.88100  -0.87998  -0.87886  -0.86867  -0.85506
 Alpha  occ. eigenvalues --   -0.84250  -0.83421  -0.83186  -0.81542  -0.81542
 Alpha  occ. eigenvalues --   -0.79098  -0.77851  -0.76795  -0.76740  -0.76722
 Alpha  occ. eigenvalues --   -0.76722  -0.76473  -0.75252  -0.74365  -0.74213
 Alpha  occ. eigenvalues --   -0.72356  -0.72354  -0.72142  -0.71271  -0.70689
 Alpha  occ. eigenvalues --   -0.68423  -0.67669  -0.67532  -0.66941  -0.65068
 Alpha  occ. eigenvalues --   -0.64100  -0.63888  -0.62452  -0.62452  -0.62356
 Alpha  occ. eigenvalues --   -0.62323  -0.59996  -0.59985  -0.59689  -0.59381
 Alpha  occ. eigenvalues --   -0.59122  -0.58058  -0.57481  -0.56981  -0.56097
 Alpha  occ. eigenvalues --   -0.55474  -0.55335  -0.55040  -0.55002  -0.54591
 Alpha  occ. eigenvalues --   -0.54182  -0.53803  -0.53193  -0.52908  -0.52492
 Alpha  occ. eigenvalues --   -0.52343  -0.52286  -0.52276  -0.52025  -0.52024
 Alpha  occ. eigenvalues --   -0.51874  -0.51168  -0.51128  -0.51034  -0.50794
 Alpha  occ. eigenvalues --   -0.50772  -0.50322  -0.50221  -0.49567  -0.49434
 Alpha  occ. eigenvalues --   -0.48946  -0.48928  -0.48904  -0.48685  -0.47889
 Alpha  occ. eigenvalues --   -0.46493  -0.46489  -0.46112  -0.46106  -0.46099
 Alpha  occ. eigenvalues --   -0.46094  -0.46017  -0.46013  -0.45843  -0.45432
 Alpha  occ. eigenvalues --   -0.44302  -0.44271  -0.44239  -0.42764  -0.42760
 Alpha  occ. eigenvalues --   -0.42625  -0.42396  -0.42290  -0.42072  -0.42054
 Alpha  occ. eigenvalues --   -0.41427  -0.41423  -0.41062  -0.41032  -0.40130
 Alpha  occ. eigenvalues --   -0.40099  -0.39603  -0.39583  -0.38698  -0.38546
 Alpha  occ. eigenvalues --   -0.37249  -0.37169  -0.37166  -0.37016  -0.35497
 Alpha  occ. eigenvalues --   -0.35462  -0.34819  -0.34412  -0.33180  -0.33178
 Alpha  occ. eigenvalues --   -0.31982  -0.31969  -0.28246
 Alpha virt. eigenvalues --   -0.07360  -0.00735   0.00287   0.02083   0.04146
 Alpha virt. eigenvalues --    0.05420   0.05472   0.05525   0.05570   0.05620
 Alpha virt. eigenvalues --    0.05861   0.09264   0.13183   0.14050   0.14084

 Mulliken charges:
               1
     1  C   -0.115615
     2  H    0.041515
     3  C   -0.099301
     4  C    0.026043
     5  C    0.077472
     6  H    0.045715
     7  C   -0.068978
     8  H    0.045628
     9  H    0.038744
    10  H    0.040632
    11  C   -0.108947
    12  C   -0.006199
    13  C    0.033350
    14  C   -0.068983
    15  N   -0.346154
    16  C    0.077475
    17  C   -0.004076
    18  C   -0.029589
    19  C    0.146143
    20  C   -0.029590
    21  O   -0.299837
    22  C    0.303623
    23  O   -0.299836
    24  C   -0.028618
    25  H    0.045334
    26  H    0.040916
    27  H    0.041514
    28  C   -0.004078
    29  C   -0.028619
    30  C   -0.029590
    31  N   -0.346152
    32  C    0.146136
    33  C    0.033348
    34  C   -0.099302
    35  C   -0.099302
    36  C   -0.028629
    37  C   -0.108945
    38  H    0.051769
    39  H    0.038495
    40  H    0.040912
    41  C   -0.108944
    42  H    0.041515
    43  H    0.045334
    44  C   -0.108942
    45  C   -0.027906
    46  C   -0.115615
    47  C   -0.068983
    48  H    0.051767
    49  H    0.055699
    50  C    0.303622
    51  C    0.303617
    52  H    0.038329
    53  H    0.038757
    54  C    0.077475
    55  C   -0.029588
    56  H    0.038498
    57  H    0.045713
    58  C   -0.027902
    59  H    0.038331
    60  H    0.041516
    61  C   -0.099301
    62  C    0.077473
    63  H    0.045630
    64  H    0.045714
    65  H    0.038746
    66  H    0.040633
    67  H    0.038508
    68  H    0.040914
    69  H    0.055701
    70  H    0.051769
    71  O   -0.299838
    72  H    0.055701
    73  C   -0.028626
    74  H    0.045629
    75  C   -0.006200
    76  C   -0.115615
    77  H    0.040636
    78  C   -0.027910
    79  H    0.038511
    80  O   -0.299838
    81  H    0.038330
    82  H    0.051767
    83  H    0.045630
    84  C   -0.115615
    85  C    0.026043
    86  C   -0.068978
    87  H    0.055699
    88  C   -0.027898
    89  H    0.045714
    90  H    0.038756
    91  C    0.026042
    92  C    0.026044
    93  H    0.038330
    94  C    0.303626
    95  H    0.040913
    96  H    0.040636
 Sum of Mulliken charges =  -0.00000

 Dipole moment (field-independent basis, Debye):
    X=              0.0002    Y=             -0.0004    Z=             -0.0000  Tot=              0.0005
 Quadrupole moment (field-independent basis, Debye-Ang):
   XX=           -367.8189   YY=           -296.7736   ZZ=           -318.2799
   XY=             -0.0008   XZ=              0.0018   YZ=             -0.0066

 Normal termination of Gaussian 16 at Fri Feb  7 02:45:19 2020.
