 Gaussian 16, Revision A.03,
 Gaussian 16:  ES64L-G16RevA.03 25-Dec-2016

 ----------------------------------------------------------------------
 # wB97XD/Def2SVP Opt # SCRF=(SMD,Solvent=Water) # Integral=(Grid=Ultra
 FineGrid)
 ----------------------------------------------------------------------

 ------------------------------
 Geometry optimisation, Mol: A8
 ------------------------------
 Symbolic Z-matrix:
 Charge =  0 Multiplicity = 1

 SCF Done:  E(RwB97XD) =  -3486.42472014     A.U. after   14 cycles
 SCF Done:  E(RwB97XD) =  -3486.45193905     A.U. after   12 cycles
 SCF Done:  E(RwB97XD) =  -3486.44676197     A.U. after   12 cycles
 SCF Done:  E(RwB97XD) =  -3486.45271999     A.U. after   12 cycles
 SCF Done:  E(RwB97XD) =  -3486.45335584     A.U. after   11 cycles
 SCF Done:  E(RwB97XD) =  -3486.45363565     A.U. after   10 cycles
 SCF Done:  E(RwB97XD) =  -3486.45370907     A.U. after   10 cycles
 SCF Done:  E(RwB97XD) =  -3486.45392489     A.U. after   10 cycles
 SCF Done:  E(RwB97XD) =  -3486.45393789     A.U. after    9 cycles
 SCF Done:  E(RwB97XD) =  -3486.45395618     A.U. after    8 cycles
 SCF Done:  E(RwB97XD) =  -3486.45396019     A.U. after    7 cycles
 SCF Done:  E(RwB97XD) =  -3486.45396034     A.U. after    6 cycles
 SCF Done:  E(RwB97XD) =  -3486.45396042     A.U. after    6 cycles
 SCF Done:  E(RwB97XD) =  -3486.45396057     A.U. after    8 cycles
 SCF Done:  E(RwB97XD) =  -3486.45396074     A.U. after    7 cycles
 SCF Done:  E(RwB97XD) =  -3486.45396081     A.U. after    7 cycles
 SCF Done:  E(RwB97XD) =  -3486.45396083     A.U. after    7 cycles
 SCF Done:  E(RwB97XD) =  -3486.45396079     A.U. after    5 cycles
 SCF Done:  E(RwB97XD) =  -3486.45396075     A.U. after    6 cycles
 SCF Done:  E(RwB97XD) =  -3486.45396074     A.U. after    6 cycles
 Optimization completed.
    -- Stationary point found.

                         Standard orientation:
 ---------------------------------------------------------------------
 Center     Atomic      Atomic             Coordinates (Angstroms)
 Number     Number       Type             X           Y           Z
 ---------------------------------------------------------------------
      1          6           0       -9.128012    0.002671   -1.461368
      2          1           0        9.632875    0.002852    2.430807
      3          6           0        1.488493   -2.387846   -0.383826
      4          8           0       -0.859651   -3.456657    0.925128
      5          6           0       -7.730316    0.001930   -1.415043
      6          6           0       -0.732981    1.250652    0.052641
      7          1           0       -6.548169   -1.274722   -4.419475
      8          6           0        3.565077   -1.218802   -0.041559
      9          1           0       -6.534171    1.302986   -4.402751
     10          1           0       -6.977665   -2.162579   -2.935062
     11          1           0       -8.236887   -1.303523   -3.860655
     12          6           0        7.181375   -0.003296   -2.406759
     13          6           0        9.881289    0.000240    0.291385
     14          6           0        1.434656   -0.000779    0.022996
     15          6           0       -3.565087    1.217550    0.043271
     16          7           0        5.683018   -0.000743    0.077736
     17          6           0        0.733002    1.250586   -0.051992
     18          6           0        7.121862   -0.000685    0.151172
     19          6           0       -2.893492   -2.388010    0.292549
     20          6           0        2.852491   -0.000771    0.022441
     21          8           0        0.859187   -3.456503   -0.925694
     22          6           0        2.893115    2.386537   -0.294243
     23          8           0        5.689948   -2.267423    0.043780
     24          6           0       -5.041893    1.235322   -0.025858
     25          8           0       -5.689929    2.266446   -0.038426
     26          6           0        7.173823    1.279518    3.507609
     27          1           0       10.972222    0.000702    0.346767
     28          1           0       -8.221818    1.344795   -3.840790
     29          1           0        9.851175   -0.002233   -1.862113
     30          6           0       -7.121976    0.000066   -0.150843
     31          6           0        7.524686   -1.273139   -3.189942
     32          6           0        2.893140   -2.388219   -0.292887
     33          7           0       -5.683133   -0.000162   -0.077398
     34          6           0       -2.852602   -0.000472   -0.022098
     35          6           0       -1.434767   -0.000630   -0.022641
     36          6           0       -1.488854   -2.387801    0.383552
     37          6           0       -1.488305    2.386315    0.385189
     38          6           0       -7.173857    1.281231   -3.506987
     39          6           0        6.920635    0.003304    2.700866
     40          1           0       -3.454822    3.302856    0.478468
     41          1           0        6.950854    2.174243    2.906564
     42          1           0        8.221801    1.342955    3.841385
     43          6           0       -6.920730    0.004829   -2.700532
     44          8           0       -0.858594    3.454868    0.926848
     45          1           0       -9.632972    0.004539   -2.430494
     46          1           0      -10.972336    0.001839   -0.346463
     47          6           0       -7.181514   -0.003250    2.407091
     48          6           0        7.524802    1.264738   -3.192819
     49          6           0        9.250291   -0.001376   -0.949397
     50          6           0       -3.565305   -1.218450    0.041529
     51          1           0        3.455086   -3.304455   -0.475156
     52          6           0        5.041892    1.234812    0.026607
     53          6           0       -5.042072   -1.235899   -0.028608
     54          1           0        5.854240   -0.004827    2.433526
     55          1           0        6.977483   -2.164152    2.934896
     56          6           0        0.732911   -1.252129   -0.051982
     57          6           0       -2.892987    2.386753    0.295198
     58          1           0        7.248429   -2.172966   -2.619533
     59          1           0        6.548007   -1.276614    4.419504
     60          6           0       -7.524935    1.264552    3.193528
     61          1           0       -5.854338   -0.003396   -2.433183
     62          1           0       -9.851306   -0.001842    1.862421
     63          6           0        1.488435    2.386254   -0.384320
     64          6           0       -0.733151   -1.252064    0.052025
     65          1           0        6.534165    1.301098    4.403397
     66          1           0       -6.979738    1.282731    4.149800
     67          1           0       -7.248800    2.165861    2.625404
     68          1           0       -8.601854    1.317998    3.419364
     69          1           0       -7.248582   -2.172982    2.619212
     70          1           0       -8.601793   -1.327505    3.415463
     71          1           0       -3.455547   -3.304236    0.474528
     72          8           0       -5.690267   -2.266851   -0.044225
     73          6           0       -7.524854   -1.273326    3.189883
     74          1           0       -6.979742   -1.294182    4.146149
     75          6           0       -9.881402    0.001275   -0.291075
     76          6           0       -9.250413   -0.000765    0.949711
     77          1           0        8.601720    1.318231   -3.418651
     78          6           0        7.188705   -1.258931    3.524387
     79          1           0       -6.950863    2.175809   -2.905731
     80          8           0        5.690021    2.265875    0.039460
     81          1           0        6.093096   -0.003040   -2.250681
     82          1           0        3.455076    3.302614   -0.477244
     83          1           0        6.979542   -1.293706   -4.146197
     84          6           0        9.127907    0.001328    1.461684
     85          6           0        7.855387   -0.001793   -1.045132
     86          6           0        3.565083    1.217198   -0.042583
     87          6           0       -7.188851   -1.257214   -3.524342
     88          1           0        6.979595    1.283212   -4.149079
     89          1           0        7.248689    2.165881   -2.624421
     90          6           0       -7.855510   -0.001323    1.045457
     91          6           0        7.730210    0.000714    1.415370
     92          1           0       -6.093233   -0.002952    2.251032
     93          6           0        5.041845   -1.236409    0.028519
     94          1           0        8.601617   -1.327257   -3.415575
     95          1           0        8.236730   -1.305371    3.860714
     96          8           0        0.858755    3.454906   -0.925757
     97          6           0       -1.357039    4.734130    0.803402
     98          6           0       -1.326495    5.534931    1.941229
     99          6           0       -1.711258    6.871118    1.842349
    100          6           0       -1.776606    5.239199   -0.426235
    101          6           0       -2.163973    6.574726   -0.510032
    102          1           0       -1.778426    4.599318   -1.310731
    103          1           0       -2.484634    6.978732   -1.472612
    104          1           0       -2.427577    8.442797    0.543734
    105          6           0       -2.129442    7.395235    0.618832
    106          1           0       -1.682413    7.505811    2.730569
    107          1           0       -0.985433    5.108121    2.885888
    108          6           0        1.357871    4.734006   -0.803221
    109          6           0        1.777509    5.239715    0.426124
    110          6           0        2.165641    6.575075    0.509024
    111          6           0        1.327957    5.533993   -1.941632
    112          6           0        1.713480    6.870031   -1.843652
    113          1           0        0.986814    5.106689   -2.886039
    114          1           0        1.685144    7.504104   -2.732332
    115          1           0        2.430514    8.442221   -0.546057
    116          6           0        2.131774    7.394781   -0.620446
    117          1           0        2.486386    6.979592    1.471362
    118          1           0        1.778852    4.600429    1.311052
    119          6           0        1.357851   -4.735683   -0.802226
    120          6           0        1.776352   -5.241019    0.427659
    121          6           0        2.164020   -6.576463    0.511409
    122          6           0        1.328632   -5.536118   -1.940342
    123          6           0        1.713682   -6.872227   -1.841513
    124          1           0        0.988375   -5.109094   -2.885195
    125          1           0        1.685876   -7.506649   -2.729961
    126          1           0        2.429181   -8.444116   -0.542705
    127          6           0        2.130822   -7.396614   -0.617755
    128          1           0        2.483866   -6.980687    1.474169
    129          1           0        1.777151   -4.601387    1.312337
    130          6           0       -1.358577   -4.735727    0.801545
    131          6           0       -1.329585   -5.536262    1.939593
    132          6           0       -1.714926   -6.872280    1.840629
    133          6           0       -1.777127   -5.240863   -0.428406
    134          6           0       -2.165087   -6.576212   -0.512292
    135          1           0       -1.777750   -4.601142   -1.313020
    136          1           0       -2.484979   -6.980284   -1.475100
    137          1           0       -2.430714   -8.443895    0.541652
    138          6           0       -2.132125   -7.396466    0.616807
    139          1           0       -1.687302   -7.506784    2.729023
    140          1           0       -0.989281   -5.109398    2.884501
 ---------------------------------------------------------------------

 The electronic state is 1-A.
 Alpha  occ. eigenvalues --  -19.31688 -19.31688 -19.31683 -19.31682 -19.26114
 Alpha  occ. eigenvalues --  -19.26114 -19.26113 -19.26113 -14.51265 -14.51265
 Alpha  occ. eigenvalues --  -10.43828 -10.43828 -10.43820 -10.43820 -10.39245
 Alpha  occ. eigenvalues --  -10.39242 -10.39239 -10.39237 -10.36994 -10.36994
 Alpha  occ. eigenvalues --  -10.36988 -10.36987 -10.34571 -10.34562 -10.34487
 Alpha  occ. eigenvalues --  -10.34467 -10.34461 -10.34455 -10.34402 -10.34402
 Alpha  occ. eigenvalues --  -10.33535 -10.33534 -10.33491 -10.33488 -10.33472
 Alpha  occ. eigenvalues --  -10.33472 -10.32851 -10.32851 -10.32850 -10.32849
 Alpha  occ. eigenvalues --  -10.31229 -10.31229 -10.31226 -10.31226 -10.30808
 Alpha  occ. eigenvalues --  -10.30808 -10.30805 -10.30805 -10.30747 -10.30747
 Alpha  occ. eigenvalues --  -10.30747 -10.30747 -10.30732 -10.30732 -10.30730
 Alpha  occ. eigenvalues --  -10.30730 -10.30530 -10.30529 -10.30528 -10.30528
 Alpha  occ. eigenvalues --  -10.30343 -10.30343 -10.30235 -10.30234 -10.30232
 Alpha  occ. eigenvalues --  -10.30232 -10.30170 -10.30170 -10.30158 -10.30158
 Alpha  occ. eigenvalues --  -10.29907 -10.29907 -10.29902 -10.29902 -10.28271
 Alpha  occ. eigenvalues --  -10.28271 -10.28270 -10.28270 -10.28267 -10.28267
 Alpha  occ. eigenvalues --  -10.28266 -10.28266  -1.20418  -1.20406  -1.19164
 Alpha  occ. eigenvalues --   -1.19158  -1.17901  -1.17900  -1.15709  -1.15708
 Alpha  occ. eigenvalues --   -1.05877  -1.05870  -1.02215  -1.00204  -0.97234
 Alpha  occ. eigenvalues --   -0.96680  -0.96138  -0.96056  -0.95928  -0.95571
 Alpha  occ. eigenvalues --   -0.94759  -0.94114  -0.93999  -0.91003  -0.91003
 Alpha  occ. eigenvalues --   -0.89612  -0.89125  -0.88074  -0.87952  -0.87934
 Alpha  occ. eigenvalues --   -0.86781  -0.86285  -0.84826  -0.84746  -0.84695
 Alpha  occ. eigenvalues --   -0.84597  -0.84534  -0.84328  -0.84141  -0.83073
 Alpha  occ. eigenvalues --   -0.82589  -0.82081  -0.81568  -0.81568  -0.79664
 Alpha  occ. eigenvalues --   -0.78337  -0.77282  -0.76750  -0.76728  -0.76727
 Alpha  occ. eigenvalues --   -0.76720  -0.76619  -0.75508  -0.75490  -0.74219
 Alpha  occ. eigenvalues --   -0.73860  -0.72387  -0.72386  -0.72180  -0.71614
 Alpha  occ. eigenvalues --   -0.71283  -0.70959  -0.70725  -0.70681  -0.70512
 Alpha  occ. eigenvalues --   -0.69496  -0.69181  -0.67783  -0.67605  -0.67143
 Alpha  occ. eigenvalues --   -0.66639  -0.65770  -0.65504  -0.65421  -0.63901
 Alpha  occ. eigenvalues --   -0.63830  -0.63738  -0.63642  -0.63106  -0.62477
 Alpha  occ. eigenvalues --   -0.62477  -0.60707  -0.60310  -0.60196  -0.60127
 Alpha  occ. eigenvalues --   -0.59930  -0.59605  -0.59384  -0.58588  -0.58418
 Alpha  occ. eigenvalues --   -0.58255  -0.57694  -0.57640  -0.57501  -0.57372
 Alpha  occ. eigenvalues --   -0.56875  -0.56509  -0.56437  -0.55543  -0.55533
 Alpha  occ. eigenvalues --   -0.55309  -0.55092  -0.54917  -0.54719  -0.54379
 Alpha  occ. eigenvalues --   -0.53754  -0.53727  -0.53531  -0.53351  -0.53178
 Alpha  occ. eigenvalues --   -0.52730  -0.52728  -0.52542  -0.52414  -0.52381
 Alpha  occ. eigenvalues --   -0.52252  -0.52105  -0.52027  -0.51991  -0.51816
 Alpha  occ. eigenvalues --   -0.51586  -0.51460  -0.51194  -0.51171  -0.51042
 Alpha  occ. eigenvalues --   -0.50946  -0.50919  -0.50801  -0.50783  -0.50448
 Alpha  occ. eigenvalues --   -0.50372  -0.50316  -0.50032  -0.49919  -0.49310
 Alpha  occ. eigenvalues --   -0.48910  -0.48826  -0.48751  -0.48026  -0.47537
 Alpha  occ. eigenvalues --   -0.47350  -0.47334  -0.47031  -0.46498  -0.46493
 Alpha  occ. eigenvalues --   -0.46128  -0.46122  -0.46106  -0.46104  -0.46091
 Alpha  occ. eigenvalues --   -0.46078  -0.46019  -0.45763  -0.44993  -0.44990
 Alpha  occ. eigenvalues --   -0.44723  -0.44498  -0.44310  -0.44306  -0.44058
 Alpha  occ. eigenvalues --   -0.43863  -0.43420  -0.43274  -0.43131  -0.42786
 Alpha  occ. eigenvalues --   -0.42778  -0.42628  -0.42497  -0.42145  -0.42083
 Alpha  occ. eigenvalues --   -0.42082  -0.41440  -0.41440  -0.41105  -0.41072
 Alpha  occ. eigenvalues --   -0.40221  -0.40196  -0.40171  -0.39658  -0.39621
 Alpha  occ. eigenvalues --   -0.39604  -0.38925  -0.38841  -0.37411  -0.37369
 Alpha  occ. eigenvalues --   -0.37289  -0.37151  -0.35508  -0.35324  -0.34976
 Alpha  occ. eigenvalues --   -0.34958  -0.34843  -0.33822  -0.33421  -0.33244
 Alpha  occ. eigenvalues --   -0.33231  -0.32960  -0.32959  -0.32001  -0.31995
 Alpha  occ. eigenvalues --   -0.31032  -0.30929  -0.29858  -0.26837
 Alpha virt. eigenvalues --   -0.06708  -0.01416  -0.00480   0.02945   0.03175
 Alpha virt. eigenvalues --    0.04278   0.04586   0.04840   0.04967   0.05450
 Alpha virt. eigenvalues --    0.05479   0.05481   0.05574   0.05590   0.05879

 Mulliken charges:
               1
     1  C   -0.115454
     2  H    0.041779
     3  C    0.141235
     4  O   -0.315061
     5  C    0.026333
     6  C    0.029654
     7  H    0.045832
     8  C   -0.049290
     9  H    0.045892
    10  H    0.039483
    11  H    0.041039
    12  C   -0.109433
    13  C   -0.005468
    14  C    0.016281
    15  C   -0.049201
    16  N   -0.346338
    17  C    0.029595
    18  C   -0.005485
    19  C   -0.099786
    20  C    0.152471
    21  O   -0.315062
    22  C   -0.099809
    23  O   -0.295104
    24  C    0.309704
    25  O   -0.295122
    26  C   -0.028183
    27  H    0.045672
    28  H    0.040774
    29  H    0.041962
    30  C   -0.005484
    31  C   -0.028157
    32  C   -0.099776
    33  N   -0.346338
    34  C    0.152476
    35  C    0.016281
    36  C    0.141253
    37  C    0.141283
    38  C   -0.028185
    39  C   -0.109113
    40  H    0.059576
    41  H    0.039156
    42  H    0.040773
    43  C   -0.109114
    44  O   -0.315082
    45  H    0.041779
    46  H    0.045672
    47  C   -0.109432
    48  C   -0.028184
    49  C   -0.115917
    50  C   -0.049307
    51  H    0.059576
    52  C    0.309708
    53  C    0.309543
    54  H    0.038727
    55  H    0.039486
    56  C    0.029734
    57  C   -0.099759
    58  H    0.038576
    59  H    0.045832
    60  C   -0.028188
    61  H    0.038728
    62  H    0.041963
    63  C    0.141363
    64  C    0.029731
    65  H    0.045892
    66  H    0.045823
    67  H    0.038586
    68  H    0.040985
    69  H    0.038576
    70  H    0.040973
    71  H    0.059577
    72  O   -0.295110
    73  C   -0.028154
    74  H    0.045825
    75  C   -0.005467
    76  C   -0.115918
    77  H    0.040984
    78  C   -0.028769
    79  H    0.039159
    80  O   -0.295122
    81  H    0.038652
    82  H    0.059571
    83  H    0.045825
    84  C   -0.115454
    85  C    0.028165
    86  C   -0.049206
    87  C   -0.028766
    88  H    0.045823
    89  H    0.038585
    90  C    0.028164
    91  C    0.026333
    92  H    0.038651
    93  C    0.309542
    94  H    0.040974
    95  H    0.041041
    96  O   -0.315083
    97  C    0.175357
    98  C   -0.052408
    99  C   -0.048877
   100  C   -0.029520
   101  C   -0.053923
   102  H    0.053851
   103  H    0.054440
   104  H    0.050339
   105  C   -0.036045
   106  H    0.055121
   107  H    0.044441
   108  C    0.175320
   109  C   -0.029459
   110  C   -0.053935
   111  C   -0.052386
   112  C   -0.048867
   113  H    0.044437
   114  H    0.055124
   115  H    0.050344
   116  C   -0.036028
   117  H    0.054444
   118  H    0.053850
   119  C    0.175316
   120  C   -0.029489
   121  C   -0.053929
   122  C   -0.052380
   123  C   -0.048871
   124  H    0.044441
   125  H    0.055124
   126  H    0.050344
   127  C   -0.036033
   128  H    0.054445
   129  H    0.053842
   130  C    0.175307
   131  C   -0.052377
   132  C   -0.048870
   133  C   -0.029474
   134  C   -0.053931
   135  H    0.053842
   136  H    0.054446
   137  H    0.050346
   138  C   -0.036029
   139  H    0.055125
   140  H    0.044440
 Sum of Mulliken charges =  -0.00000

 Dipole moment (field-independent basis, Debye):
    X=              0.0013    Y=              0.0007    Z=             -0.0016  Tot=              0.0021
 Quadrupole moment (field-independent basis, Debye-Ang):
   XX=           -516.8920   YY=           -416.9935   ZZ=           -431.1875
   XY=              0.0211   XZ=              2.4265   YZ=             -0.0119

 Normal termination of Gaussian 16 at Fri Feb  7 05:57:27 2020.
