 Gaussian 16, Revision A.03,
 Gaussian 16:  ES64L-G16RevA.03 25-Dec-2016

 ----------------------------------------------------------------------
 # wB97XD/Def2SVP Opt # SCRF=(SMD,Solvent=Water) # Integral=(Grid=Ultra
 FineGrid)
 ----------------------------------------------------------------------

 -------------------------------
 Geometry optimisation, Mol: D14
 -------------------------------
 Symbolic Z-matrix:
 Charge =  0 Multiplicity = 1

 SCF Done:  E(RwB97XD) =  -4025.53252139     A.U. after   14 cycles
 SCF Done:  E(RwB97XD) =  -4025.58783435     A.U. after   12 cycles
 SCF Done:  E(RwB97XD) =  -4025.64927914     A.U. after   12 cycles
 SCF Done:  E(RwB97XD) =  -4025.67904425     A.U. after   12 cycles
 SCF Done:  E(RwB97XD) =  -4025.68295199     A.U. after   14 cycles
 SCF Done:  E(RwB97XD) =  -4025.68336187     A.U. after   12 cycles
 SCF Done:  E(RwB97XD) =  -4025.68334005     A.U. after   11 cycles
 SCF Done:  E(RwB97XD) =  -4025.68332609     A.U. after   10 cycles
 SCF Done:  E(RwB97XD) =  -4025.68344025     A.U. after   11 cycles
 SCF Done:  E(RwB97XD) =  -4025.68347002     A.U. after   10 cycles
 SCF Done:  E(RwB97XD) =  -4025.68348698     A.U. after   10 cycles
 SCF Done:  E(RwB97XD) =  -4025.68348891     A.U. after    9 cycles
 SCF Done:  E(RwB97XD) =  -4025.68348993     A.U. after    7 cycles
 SCF Done:  E(RwB97XD) =  -4025.68349296     A.U. after    8 cycles
 SCF Done:  E(RwB97XD) =  -4025.68349371     A.U. after    8 cycles
 SCF Done:  E(RwB97XD) =  -4025.68349322     A.U. after    7 cycles
 SCF Done:  E(RwB97XD) =  -4025.68349430     A.U. after    8 cycles
 SCF Done:  E(RwB97XD) =  -4025.68349448     A.U. after    7 cycles
 SCF Done:  E(RwB97XD) =  -4025.68349475     A.U. after    7 cycles
 SCF Done:  E(RwB97XD) =  -4025.68349476     A.U. after    6 cycles
 Optimization completed.
    -- Stationary point found.

                         Standard orientation:
 ---------------------------------------------------------------------
 Center     Atomic      Atomic             Coordinates (Angstroms)
 Number     Number       Type             X           Y           Z
 ---------------------------------------------------------------------
      1          1           0      -19.594018    3.399983    1.791601
      2          6           0       15.334261    1.857852   -0.007025
      3          6           0      -11.568473    0.774356   -0.649439
      4          1           0       -6.995945    1.305900   -1.386669
      5          1           0        0.460533    0.382657    0.572256
      6          6           0        3.374955   -1.892201   -0.839759
      7          6           0       -3.275897   -1.814799   -0.576170
      8          1           0       12.845632    0.818383   -1.009659
      9          1           0       -1.561960    1.182761    2.065084
     10          1           0        6.508627   -1.550978    2.965296
     11          7           0        3.126129   -2.471449   -2.013394
     12          6           0        7.192338   -1.181657    2.197626
     13          6           0       17.344528    0.198887    0.979909
     14          6           0      -12.022808    1.489563   -1.771442
     15          1           0        9.337641   -0.766513   -2.517065
     16          1           0        2.186502   -0.522762    2.020206
     17          6           0       14.938823    0.696010    0.745388
     18          1           0       11.088296   -0.433602   -2.497985
     19          6           0        0.061804   -0.564295    0.198977
     20          1           0      -15.297206    1.551937    3.429608
     21          1           0      -11.344479    1.650928   -2.612292
     22          6           0      -15.592870    2.124666   -0.556644
     23          6           0       -0.959388   -2.991706   -0.795791
     24          6           0      -16.488744    2.828387   -1.357994
     25          1           0       -6.351655   -3.029603   -1.317468
     26          6           0        6.698273   -0.914038    0.908629
     27          6           0        8.539711   -1.006816    2.507960
     28          6           0        5.254719   -1.093518    0.621693
     29          6           0       -4.248341   -2.720152   -0.998904
     30          6           0       -4.971937   -0.145073   -0.121917
     31          6           0       11.791901   -0.402251    2.551620
     32          6           0       -8.447842   -1.467272   -0.095593
     33          6           0       13.117694   -0.068702    2.280331
     34          6           0      -15.992636    1.641616    0.701698
     35          6           0       -2.256257    1.531769   -0.591858
     36          1           0       19.404801    1.638631   -1.088355
     37          1           0       -3.333697    1.331708    1.950451
     38          1           0      -16.186614    3.206994   -2.337445
     39          1           0        8.880870    1.654812   -1.825885
     40          1           0      -17.595339    1.483219    2.139620
     41          6           0      -12.449774    0.549577    0.423203
     42          6           0      -14.189225    1.746455   -0.770988
     43          6           0      -10.166910    0.293011   -0.601735
     44          6           0      -14.463770    1.595115    2.711592
     45          6           0       -1.303572   -0.726679    0.013785
     46          6           0        0.411525   -2.824578   -0.611978
     47          6           0       -2.417866    0.276360    0.277512
     48         16           0       15.465490    3.881461   -1.259557
     49          6           0       -5.586028   -2.331034   -0.977645
     50          6           0        7.582298   -0.457894   -0.085039
     51          6           0        0.937264   -1.618622   -0.114710
     52          6           0       17.766696    1.285001    0.260475
     53          6           0       -2.482278    0.659485    1.763184
     54          6           0       15.963014   -0.088338    1.216290
     55          1           0      -14.349778   -1.099645    2.083446
     56          1           0       -3.104511    2.216740   -0.439495
     57          1           0       11.501820   -0.739647    3.549205
     58          6           0        4.279984   -0.691014    1.501742
     59          6           0        4.788916   -1.714701   -0.589242
     60         16           0        4.557131   -2.774299   -2.710632
     61          1           0      -15.490884   -1.071303    0.711876
     62          6           0       -3.639423   -0.530753   -0.139083
     63          6           0       10.041347    0.198000   -0.693463
     64          1           0       -1.332866    2.068264   -0.324617
     65          6           0       -1.815256   -1.936404   -0.482976
     66          7           0       16.929034    3.256706   -0.943531
     67          1           0        7.211845   -0.233369   -1.086883
     68          6           0      -13.747100    1.034887    0.356790
     69          1           0       19.863739    0.849421    0.445653
     70          1           0       19.470844    2.590159    0.402094
     71          6           0       16.731153    2.141156   -0.243189
     72          6           0       10.235915   -0.756410   -1.880588
     73          7           0        5.551611   -2.185785   -1.574786
     74          1           0       -3.971575   -3.718004   -1.346542
     75          1           0        1.086586   -3.649192   -0.844245
     76          6           0        2.393010   -1.456448    0.116474
     77          1           0      -12.109823    0.007349    1.307355
     78          6           0        9.781176    1.626652   -1.192929
     79          1           0      -18.497764    3.593508   -1.508765
     80          1           0       -9.314979    2.074599   -1.401334
     81          1           0       10.631901    1.984753   -1.793006
     82          1           0      -20.107567    1.856572    1.093654
     83          1           0      -14.204815    2.651721    2.545061
     84          7           0      -10.674013   -1.934505    0.340731
     85          1           0       -2.208860    1.271085   -1.659968
     86          1           0       15.720842   -0.988634    1.785725
     87          6           0      -19.601931    2.807259    0.863344
     88          1           0       -1.351698   -3.937813   -1.175327
     89         16           0       -9.798496   -3.228313    0.770929
     90          6           0      -15.208393   -0.565649    1.647687
     91          6           0      -17.786284    3.042751   -0.887719
     92          6           0      -17.284079    1.859656    1.160365
     93          6           0       -7.383543   -0.619607   -0.561567
     94          6           0      -18.201476    2.567605    0.365231
     95          1           0       13.861955   -0.138788    3.076814
     96          1           0        9.635267    2.320556   -0.351325
     97          1           0      -13.662389    2.525189   -2.724854
     98          6           0      -13.326577    1.977927   -1.841144
     99          6           0       -7.760785    0.621823   -1.012581
    100          6           0       10.848759   -0.287327    1.531672
    101          6           0       -9.116254    1.066028   -1.032557
    102          6           0      -14.853032    0.906809    1.395315
    103          6           0       -5.963798   -1.047422   -0.544443
    104          1           0       -5.254962    0.849840    0.231748
    105          7           0       -8.313886   -2.698341    0.395628
    106          6           0       -9.823083   -1.017156   -0.116928
    107          6           0       19.204815    1.602618   -0.006079
    108          6           0        9.404840   -0.556749    1.511955
    109          6           0       11.231555    0.154608    0.254345
    110          1           0      -16.051443   -0.643242    2.351468
    111          1           0      -20.207751    3.345494    0.121244
    112          6           0        2.885798   -0.866836    1.255065
    113          6           0       12.551665    0.485988   -0.012255
    114          7           0       14.525882    2.777995   -0.530891
    115          1           0       10.426964   -1.783931   -1.535887
    116          1           0       -2.598250   -0.231959    2.397951
    117          6           0       13.514305    0.375735    1.006549
    118          1           0        4.573740   -0.203303    2.433731
    119          1           0       18.088064   -0.489491    1.389019
    120          1           0      -13.595818    1.093202    3.166448
    121          6           0        8.923312   -0.281658    0.221216
    122          1           0        8.906505   -1.227625    3.512829
 ---------------------------------------------------------------------

 The electronic state is 1-A.
 Alpha  occ. eigenvalues --  -89.10657 -89.10645 -89.10417 -14.48438 -14.48429
 Alpha  occ. eigenvalues --  -14.48428 -14.48418 -14.48294 -14.48268 -10.35954
 Alpha  occ. eigenvalues --  -10.35944 -10.35927 -10.35917 -10.35697 -10.35319
 Alpha  occ. eigenvalues --  -10.32782 -10.32773 -10.32760 -10.32751 -10.32430
 Alpha  occ. eigenvalues --  -10.32217 -10.31890 -10.31887 -10.31868 -10.31803
 Alpha  occ. eigenvalues --  -10.31745 -10.31662 -10.31627 -10.31603 -10.31601
 Alpha  occ. eigenvalues --  -10.31599 -10.31567 -10.31463 -10.31441 -10.31037
 Alpha  occ. eigenvalues --  -10.30828 -10.30816 -10.30807 -10.30806 -10.30760
 Alpha  occ. eigenvalues --  -10.30676 -10.30554 -10.30547 -10.30542 -10.30535
 Alpha  occ. eigenvalues --  -10.30529 -10.30523 -10.30510 -10.30471 -10.30466
 Alpha  occ. eigenvalues --  -10.30458 -10.30456 -10.30452 -10.30435 -10.30430
 Alpha  occ. eigenvalues --  -10.30404 -10.30388 -10.30379 -10.30369 -10.30352
 Alpha  occ. eigenvalues --  -10.30228 -10.30220 -10.30170 -10.30092 -10.29680
 Alpha  occ. eigenvalues --  -10.29651 -10.29444 -10.28821 -10.28817 -10.28814
 Alpha  occ. eigenvalues --  -10.28786 -10.28784 -10.28738 -10.28727  -8.15512
 Alpha  occ. eigenvalues --   -8.15500  -8.15278  -6.10977  -6.10965  -6.10744
 Alpha  occ. eigenvalues --   -6.10387  -6.10375  -6.10161  -6.10157  -6.10148
 Alpha  occ. eigenvalues --   -6.09922  -1.13447  -1.13433  -1.13190  -0.99895
 Alpha  occ. eigenvalues --   -0.99806  -0.99598  -0.99382  -0.99184  -0.99017
 Alpha  occ. eigenvalues --   -0.97373  -0.97032  -0.96576  -0.95094  -0.94549
 Alpha  occ. eigenvalues --   -0.94076  -0.92122  -0.91549  -0.91121  -0.89005
 Alpha  occ. eigenvalues --   -0.88709  -0.88210  -0.87339  -0.86473  -0.86372
 Alpha  occ. eigenvalues --   -0.86138  -0.86000  -0.84845  -0.83980  -0.83836
 Alpha  occ. eigenvalues --   -0.83625  -0.82875  -0.82565  -0.82506  -0.82277
 Alpha  occ. eigenvalues --   -0.81448  -0.79931  -0.77798  -0.77229  -0.77198
 Alpha  occ. eigenvalues --   -0.77139  -0.76892  -0.75088  -0.74174  -0.74007
 Alpha  occ. eigenvalues --   -0.73846  -0.73475  -0.73457  -0.72582  -0.71746
 Alpha  occ. eigenvalues --   -0.71546  -0.71158  -0.70853  -0.70389  -0.68988
 Alpha  occ. eigenvalues --   -0.68133  -0.67908  -0.67287  -0.67164  -0.66892
 Alpha  occ. eigenvalues --   -0.66476  -0.65981  -0.65727  -0.64441  -0.63526
 Alpha  occ. eigenvalues --   -0.63211  -0.60816  -0.60604  -0.60268  -0.60013
 Alpha  occ. eigenvalues --   -0.59924  -0.59755  -0.59586  -0.59571  -0.59498
 Alpha  occ. eigenvalues --   -0.58072  -0.57672  -0.57266  -0.57073  -0.56723
 Alpha  occ. eigenvalues --   -0.56356  -0.55843  -0.55826  -0.55613  -0.55389
 Alpha  occ. eigenvalues --   -0.54857  -0.54039  -0.53671  -0.53503  -0.53057
 Alpha  occ. eigenvalues --   -0.53008  -0.52682  -0.52359  -0.52329  -0.52269
 Alpha  occ. eigenvalues --   -0.52255  -0.52165  -0.51941  -0.51852  -0.51411
 Alpha  occ. eigenvalues --   -0.51283  -0.51248  -0.51174  -0.51152  -0.51009
 Alpha  occ. eigenvalues --   -0.50685  -0.49977  -0.49815  -0.49375  -0.48761
 Alpha  occ. eigenvalues --   -0.48655  -0.47951  -0.47801  -0.47665  -0.47477
 Alpha  occ. eigenvalues --   -0.47248  -0.47158  -0.47108  -0.47033  -0.46978
 Alpha  occ. eigenvalues --   -0.46928  -0.46799  -0.46654  -0.46564  -0.46438
 Alpha  occ. eigenvalues --   -0.46224  -0.46160  -0.46019  -0.45737  -0.45316
 Alpha  occ. eigenvalues --   -0.45252  -0.45050  -0.44873  -0.44730  -0.44417
 Alpha  occ. eigenvalues --   -0.44118  -0.43998  -0.43742  -0.43735  -0.43416
 Alpha  occ. eigenvalues --   -0.43325  -0.43154  -0.42713  -0.42441  -0.42323
 Alpha  occ. eigenvalues --   -0.42275  -0.42207  -0.42168  -0.41668  -0.40960
 Alpha  occ. eigenvalues --   -0.40598  -0.40447  -0.40049  -0.40035  -0.39987
 Alpha  occ. eigenvalues --   -0.39950  -0.39731  -0.39465  -0.39291  -0.39201
 Alpha  occ. eigenvalues --   -0.39116  -0.37801  -0.37225  -0.36408  -0.34431
 Alpha  occ. eigenvalues --   -0.34409  -0.34191  -0.33770  -0.33462  -0.33221
 Alpha  occ. eigenvalues --   -0.33087  -0.32783  -0.32738  -0.32492  -0.32165
 Alpha  occ. eigenvalues --   -0.30802  -0.29011  -0.27819  -0.27051
 Alpha virt. eigenvalues --   -0.03574  -0.03147  -0.02697   0.01188   0.01664
 Alpha virt. eigenvalues --    0.02277   0.04744   0.04820   0.05017   0.05717
 Alpha virt. eigenvalues --    0.06512   0.06688   0.06866   0.06996   0.07154

 Mulliken charges:
               1
     1  H    0.061922
     2  C    0.044324
     3  C    0.008730
     4  H    0.049126
     5  H    0.028476
     6  C    0.034303
     7  C    0.058722
     8  H    0.021664
     9  H    0.049220
    10  H    0.038617
    11  N   -0.329758
    12  C   -0.051470
    13  C   -0.093758
    14  C   -0.053009
    15  H    0.048764
    16  H    0.049230
    17  C    0.050997
    18  H    0.049279
    19  C   -0.099418
    20  H    0.048148
    21  H    0.037739
    22  C    0.047726
    23  C   -0.095910
    24  C   -0.092112
    25  H    0.032398
    26  C    0.009125
    27  C   -0.093853
    28  C    0.061516
    29  C   -0.095812
    30  C   -0.100014
    31  C   -0.093643
    32  C    0.034361
    33  C   -0.053060
    34  C    0.016013
    35  C    0.024931
    36  H    0.065304
    37  H    0.049704
    38  H    0.031196
    39  H    0.049270
    40  H    0.019048
    41  C   -0.080507
    42  C    0.057095
    43  C    0.063088
    44  C    0.024397
    45  C    0.006490
    46  C   -0.033030
    47  C   -0.202807
    48  S    0.495708
    49  C   -0.033168
    50  C   -0.079273
    51  C    0.009379
    52  C   -0.089376
    53  C    0.025204
    54  C   -0.065821
    55  H    0.047783
    56  H    0.049196
    57  H    0.035387
    58  C   -0.074059
    59  C    0.032818
    60  S    0.503938
    61  H    0.043321
    62  C    0.006657
    63  C   -0.203825
    64  H    0.049737
    65  C    0.058908
    66  N   -0.343682
    67  H    0.022272
    68  C    0.001937
    69  H    0.050129
    70  H    0.065410
    71  C    0.018769
    72  C    0.025322
    73  N   -0.331629
    74  H    0.035759
    75  H    0.032589
    76  C    0.056938
    77  H    0.020943
    78  C    0.025583
    79  H    0.030464
    80  H    0.048185
    81  H    0.048747
    82  H    0.060765
    83  H    0.043318
    84  N   -0.331825
    85  H    0.044559
    86  H    0.045967
    87  C    0.016147
    88  H    0.035797
    89  S    0.503637
    90  C    0.024654
    91  C   -0.063128
    92  C   -0.111854
    93  C    0.057374
    94  C   -0.105388
    95  H    0.037601
    96  H    0.044140
    97  H    0.034167
    98  C   -0.096648
    99  C   -0.072717
   100  C    0.056476
   101  C   -0.075545
   102  C   -0.203564
   103  C    0.009610
   104  H    0.028378
   105  N   -0.330125
   106  C    0.032086
   107  C    0.043616
   108  C    0.057538
   109  C    0.004425
   110  H    0.048148
   111  H    0.046905
   112  C   -0.072440
   113  C   -0.082020
   114  N   -0.334031
   115  H    0.044127
   116  H    0.044513
   117  C    0.011318
   118  H    0.048469
   119  H    0.044519
   120  H    0.048409
   121  C    0.003913
   122  H    0.035696
 Sum of Mulliken charges =  -0.00000

 Dipole moment (field-independent basis, Debye):
    X=              0.5557    Y=              2.1570    Z=              2.9724  Tot=              3.7144
 Quadrupole moment (field-independent basis, Debye-Ang):
   XX=           -356.1133   YY=           -442.3720   ZZ=           -420.3042
   XY=            -45.5319   XZ=              8.2693   YZ=             -8.4879

 Normal termination of Gaussian 16 at Fri Feb  7 19:05:56 2020.
