 Gaussian 16, Revision A.03,
 Gaussian 16:  ES64L-G16RevA.03 25-Dec-2016

 ----------------------------------------------------------------------
 # wB97XD/Def2SVP # Geom=Checkpoint Guess=Read # Opt=(recalc=5, maxcycl
 e=50) # SCRF=(SMD,Solvent=Water) # Integral=(Grid=UltraFineGrid)
 ----------------------------------------------------------------------

 ------------------------------
 Geometry optimisation, Mol: D4
 ------------------------------
 Structure from the checkpoint file:  "/users/psyche/volatile/gaussian/nanohybrid/chk/D4_2.chk"
 Charge =  0 Multiplicity = 1

 SCF Done:  E(RwB97XD) =  -3624.59509916     A.U. after    1 cycles
 SCF Done:  E(RwB97XD) =  -3624.59560075     A.U. after   13 cycles
 SCF Done:  E(RwB97XD) =  -3624.54078998     A.U. after   15 cycles
 SCF Done:  E(RwB97XD) =  -3624.59540144     A.U. after   13 cycles
 SCF Done:  E(RwB97XD) =  -3624.59570233     A.U. after   10 cycles
 SCF Done:  E(RwB97XD) =  -3624.59583765     A.U. after   13 cycles
 SCF Done:  E(RwB97XD) =  -3624.59586749     A.U. after   13 cycles
 SCF Done:  E(RwB97XD) =  -3624.59584944     A.U. after   14 cycles
 SCF Done:  E(RwB97XD) =  -3624.59595713     A.U. after   12 cycles
 SCF Done:  E(RwB97XD) =  -3624.59625235     A.U. after   12 cycles
 SCF Done:  E(RwB97XD) =  -3624.59655796     A.U. after   11 cycles
 SCF Done:  E(RwB97XD) =  -3624.59656766     A.U. after   11 cycles
 SCF Done:  E(RwB97XD) =  -3624.59657558     A.U. after   10 cycles
 SCF Done:  E(RwB97XD) =  -3624.59657589     A.U. after    9 cycles
 SCF Done:  E(RwB97XD) =  -3624.59657680     A.U. after    8 cycles
 SCF Done:  E(RwB97XD) =  -3624.59657707     A.U. after    8 cycles
 SCF Done:  E(RwB97XD) =  -3624.59657720     A.U. after    8 cycles
 SCF Done:  E(RwB97XD) =  -3624.59657720     A.U. after    7 cycles
 SCF Done:  E(RwB97XD) =  -3624.59657724     A.U. after    7 cycles
 SCF Done:  E(RwB97XD) =  -3624.59657724     A.U. after    6 cycles
 Optimization completed on the basis of negligible forces.
    -- Stationary point found.

                         Standard orientation:
 ---------------------------------------------------------------------
 Center     Atomic      Atomic             Coordinates (Angstroms)
 Number     Number       Type             X           Y           Z
 ---------------------------------------------------------------------
      1         16           0       -2.138768   -1.067565   -0.013349
      2          6           0       -7.319500   -0.265102   -0.106011
      3          6           0       12.115482    0.737715   -0.387862
      4          1           0       -4.297098   -3.344342    0.239118
      5         16           0       -5.996282    0.856139   -0.097966
      6          6           0       -8.697275    0.155734    0.122270
      7          6           0      -11.116348    0.151900    0.798816
      8         16           0        5.690860   -0.788307   -0.227769
      9          6           0       -3.428118   -0.026350   -0.523017
     10          1           0       -3.929467   -2.852702   -1.427862
     11         16           0       -9.794122   -0.960711    0.892049
     12          6           0        3.181117   -2.875095    0.076875
     13          1           0       -1.410706    3.085997   -2.068893
     14          6           0       -4.829737   -0.401323   -0.381384
     15          6           0       -8.705118    2.534435   -0.844140
     16          6           0        0.477610   -0.277261   -0.302078
     17         16           0        1.727066    0.903530   -0.066376
     18          1           0        2.500360   -3.706265    0.306572
     19          1           0      -12.887975   -1.081361    0.784356
     20          1           0       -5.451414   -3.699428   -1.058891
     21          1           0      -11.386729    2.162182    0.052535
     22          6           0        8.883206   -1.117465    0.234268
     23          1           0       -8.157007    3.158997   -0.119963
     24          6           0      -10.710133    1.320424    0.213812
     25          6           0       -2.918011    1.161594   -0.994961
     26          6           0       -9.333554    1.343649   -0.179851
     27          6           0        2.416408   -1.586566   -0.011935
     28          6           0       -5.437516   -1.641805   -0.452113
     29          1           0        0.412980   -2.449198   -0.374430
     30          1           0      -13.159531    0.636646    1.168397
     31          1           0       -0.378973    3.063930   -0.626997
     32          6           0      -12.473213   -0.208882    1.312517
     33          1           0      -12.449420   -0.452599    2.385911
     34          1           0       -9.478425    3.167398   -1.301168
     35          6           0        4.325094    0.111235    0.351797
     36          6           0        6.819984    0.366053    0.413985
     37          1           0       -7.995463    2.240042   -1.631316
     38          1           0        4.063426    1.975791    1.436436
     39          1           0        6.157872    3.031831    2.442602
     40          6           0       -0.750044    2.450401   -1.463782
     41          6           0       10.714490    0.260559   -0.168847
     42         16           0        9.397396    1.372346   -0.035482
     43          1           0        3.681147   -3.113762   -0.875680
     44          1           0        7.763924    2.303009    2.190316
     45          6           0        8.247127    0.102951    0.255286
     46          1           0        3.954069   -2.839497    0.858339
     47          6           0       -6.850763   -1.545489   -0.294097
     48          6           0       10.288366   -1.038163   -0.004315
     49          6           0        1.011889   -1.545007   -0.247348
     50          1           0       -7.507375   -2.416441   -0.342570
     51          6           0        4.750090    1.258402    0.982211
     52          1           0        0.116497    2.172869   -2.082239
     53          6           0       -4.739079   -2.948959   -0.689625
     54          6           0       11.207885   -2.224702   -0.042947
     55          6           0        2.951595   -0.317397    0.114269
     56          6           0        6.827526    2.591206    1.690959
     57          1           0       -3.546656    1.967564   -1.378775
     58          6           0        6.166113    1.418742    1.026934
     59          6           0       -1.495635    1.244146   -0.972567
     60          6           0       -0.923148    0.088582   -0.470660
     61          1           0        7.069563    3.382193    0.962888
     62          1           0       11.893702   -2.228548    0.819485
     63          1           0       10.639137   -3.164428   -0.024757
     64          1           0       11.831357   -2.220616   -0.950637
     65          1           0       12.620933    0.110409   -1.137931
     66          1           0       12.147316    1.778276   -0.739625
     67          1           0       12.705177    0.678426    0.541574
     68          1           0        8.359659   -2.062268    0.396744
 ---------------------------------------------------------------------

 The electronic state is 1-A.
 Alpha  occ. eigenvalues --  -89.04481 -89.04463 -89.04373 -89.04292 -89.03647
 Alpha  occ. eigenvalues --  -89.03462 -10.34404 -10.34402 -10.34266 -10.34184
 Alpha  occ. eigenvalues --  -10.33892 -10.33819 -10.33747 -10.33658 -10.33485
 Alpha  occ. eigenvalues --  -10.33246 -10.33028 -10.32323 -10.31746 -10.31666
 Alpha  occ. eigenvalues --  -10.31663 -10.31423 -10.31245 -10.30588 -10.30567
 Alpha  occ. eigenvalues --  -10.30501 -10.30419 -10.30231 -10.30122 -10.29931
 Alpha  occ. eigenvalues --  -10.29856 -10.29610 -10.29574 -10.29548 -10.29547
 Alpha  occ. eigenvalues --  -10.29435 -10.29417 -10.29089  -8.09631  -8.09603
 Alpha  occ. eigenvalues --   -8.09522  -8.09444  -8.08833  -8.08686  -6.04998
 Alpha  occ. eigenvalues --   -6.04972  -6.04888  -6.04809  -6.04610  -6.04583
 Alpha  occ. eigenvalues --   -6.04501  -6.04422  -6.04256  -6.04229  -6.04186
 Alpha  occ. eigenvalues --   -6.04150  -6.04073  -6.04044  -6.03806  -6.03665
 Alpha  occ. eigenvalues --   -6.03480  -6.03316  -1.00956  -1.00354  -0.99580
 Alpha  occ. eigenvalues --   -0.98672  -0.97757  -0.97185  -0.89665  -0.88586
 Alpha  occ. eigenvalues --   -0.87583  -0.86819  -0.86410  -0.86191  -0.85937
 Alpha  occ. eigenvalues --   -0.85411  -0.84835  -0.83466  -0.81572  -0.79992
 Alpha  occ. eigenvalues --   -0.78692  -0.77954  -0.77360  -0.77270  -0.77051
 Alpha  occ. eigenvalues --   -0.76448  -0.74689  -0.73322  -0.70303  -0.68706
 Alpha  occ. eigenvalues --   -0.67168  -0.65749  -0.64485  -0.63426  -0.62602
 Alpha  occ. eigenvalues --   -0.61383  -0.60699  -0.60427  -0.60184  -0.59688
 Alpha  occ. eigenvalues --   -0.58349  -0.57669  -0.56098  -0.54286  -0.53289
 Alpha  occ. eigenvalues --   -0.53018  -0.52830  -0.52565  -0.52128  -0.51818
 Alpha  occ. eigenvalues --   -0.51755  -0.51456  -0.51296  -0.50935  -0.50911
 Alpha  occ. eigenvalues --   -0.50577  -0.49782  -0.49577  -0.49131  -0.48290
 Alpha  occ. eigenvalues --   -0.48082  -0.47997  -0.47862  -0.47817  -0.47583
 Alpha  occ. eigenvalues --   -0.47272  -0.47137  -0.46837  -0.46470  -0.46204
 Alpha  occ. eigenvalues --   -0.46123  -0.45737  -0.45260  -0.45124  -0.44568
 Alpha  occ. eigenvalues --   -0.44367  -0.44294  -0.43917  -0.43717  -0.43517
 Alpha  occ. eigenvalues --   -0.43476  -0.42768  -0.42303  -0.41871  -0.41450
 Alpha  occ. eigenvalues --   -0.41212  -0.41151  -0.37819  -0.35450  -0.33327
 Alpha  occ. eigenvalues --   -0.33008  -0.32909  -0.32830  -0.32798  -0.32425
 Alpha  occ. eigenvalues --   -0.32161  -0.29911  -0.27133  -0.25050
 Alpha virt. eigenvalues --   -0.01234   0.01135   0.03596   0.05795   0.07421
 Alpha virt. eigenvalues --    0.08652   0.09182   0.09689   0.10282   0.10566
 Alpha virt. eigenvalues --    0.10675   0.11070   0.12463   0.12595   0.13455

 Mulliken charges:
               1
     1  S    0.126995
     2  C   -0.106029
     3  C    0.047149
     4  H    0.071669
     5  S    0.126922
     6  C   -0.129407
     7  C   -0.236750
     8  S    0.128122
     9  C   -0.106123
    10  H    0.056119
    11  S    0.102547
    12  C    0.036193
    13  H    0.058382
    14  C   -0.115956
    15  C    0.032884
    16  C   -0.102286
    17  S    0.121456
    18  H    0.058085
    19  H    0.071288
    20  H    0.057950
    21  H    0.036398
    22  C   -0.052124
    23  H    0.069902
    24  C   -0.058813
    25  C   -0.064264
    26  C   -0.115198
    27  C   -0.112687
    28  C   -0.110857
    29  H    0.042012
    30  H    0.062201
    31  H    0.071611
    32  C    0.044732
    33  H    0.070962
    34  H    0.056292
    35  C   -0.115377
    36  C   -0.114325
    37  H    0.053710
    38  H    0.040886
    39  H    0.056870
    40  C    0.036510
    41  C   -0.296525
    42  S    0.107872
    43  H    0.071776
    44  H    0.052452
    45  C   -0.141932
    46  H    0.055656
    47  C   -0.069819
    48  C   -0.114895
    49  C   -0.070926
    50  H    0.039756
    51  C   -0.063275
    52  H    0.057872
    53  C    0.035865
    54  C    0.037497
    55  C   -0.107449
    56  C    0.038178
    57  H    0.041541
    58  C   -0.112839
    59  C   -0.119242
    60  C   -0.107271
    61  H    0.069740
    62  H    0.061323
    63  H    0.048228
    64  H    0.058176
    65  H    0.066098
    66  H    0.054542
    67  H    0.073210
    68  H    0.036737
 Sum of Mulliken charges =  -0.00000

 Dipole moment (field-independent basis, Debye):
    X=              0.3888    Y=             -0.0951    Z=             -0.3013  Tot=              0.5010
 Quadrupole moment (field-independent basis, Debye-Ang):
   XX=           -166.2371   YY=           -237.8947   ZZ=           -271.8665
   XY=            -10.8692   XZ=              1.9004   YZ=             -0.4593

  Exact polarizability:   0.000   0.000   0.000   0.000   0.000   0.000
 Approx polarizability: 726.896  -7.739 576.157 -14.393  -8.266 332.091

 Normal termination of Gaussian 16 at Mon Feb 10 02:53:16 2020.
